/*--------------------------------*- C++ -*----------------------------------*\
| =========                 |                                                 |
| \\      /  F ield         | OpenFOAM: The Open Source CFD Toolbox           |
|  \\    /   O peration     | Version:  2.3.x                                 |
|   \\  /    A nd           | Web:      www.OpenFOAM.org                      |
|    \\/     M anipulation  |                                                 |
\*---------------------------------------------------------------------------*/
FoamFile
{
    version     2.0;
    format      ascii;
    class       volScalarField;
    location    "0";
    object      nut;
}
// * * * * * * * * * * * * * * * * * * * * * * * * * * * * * * * * * * * * * //

dimensions      [0 2 -1 0 0 0 0];

internalField   nonuniform List<scalar> 
14751
(
2.29891e-08
2.32853e-08
2.3589e-08
2.3952e-08
2.4229e-08
2.46162e-08
2.51001e-08
2.55733e-08
2.61922e-08
2.66891e-08
2.74057e-08
2.79658e-08
2.85103e-08
2.92454e-08
2.98053e-08
3.06579e-08
3.13374e-08
3.22389e-08
3.31553e-08
3.3865e-08
3.46894e-08
3.52295e-08
3.61888e-08
3.71017e-08
3.79246e-08
3.88469e-08
3.96806e-08
4.0777e-08
4.18217e-08
4.26502e-08
4.34931e-08
4.40098e-08
4.49806e-08
4.57209e-08
4.64692e-08
4.71857e-08
4.79357e-08
4.87447e-08
4.92442e-08
4.97193e-08
5.00409e-08
5.03468e-08
5.09296e-08
5.1296e-08
5.16547e-08
5.1478e-08
5.12791e-08
5.14194e-08
5.12059e-08
5.06051e-08
5.01218e-08
4.97039e-08
4.90459e-08
4.8099e-08
4.69352e-08
4.63569e-08
4.53456e-08
4.45208e-08
4.34785e-08
4.24534e-08
4.17983e-08
4.04534e-08
3.93354e-08
3.82179e-08
3.70844e-08
3.6214e-08
3.51578e-08
3.44166e-08
3.31197e-08
3.19763e-08
3.09832e-08
2.99605e-08
2.92635e-08
2.82253e-08
2.76298e-08
2.69583e-08
2.63267e-08
2.58151e-08
2.50445e-08
2.45472e-08
2.3868e-08
2.34417e-08
2.29844e-08
2.25245e-08
2.22817e-08
2.19678e-08
2.1887e-08
2.17681e-08
2.1613e-08
2.15609e-08
2.15831e-08
2.16673e-08
2.17575e-08
2.18327e-08
2.19464e-08
2.21345e-08
2.22918e-08
2.25314e-08
2.27299e-08
7.17742e-08
7.24815e-08
7.33215e-08
7.45392e-08
7.54572e-08
7.65986e-08
7.81748e-08
7.97228e-08
8.16031e-08
8.32775e-08
8.54786e-08
8.73185e-08
8.91501e-08
9.16118e-08
9.35185e-08
9.62405e-08
9.84008e-08
1.01262e-07
1.04361e-07
1.06858e-07
1.09485e-07
1.11441e-07
1.14223e-07
1.17531e-07
1.2042e-07
1.23472e-07
1.26263e-07
1.30059e-07
1.33225e-07
1.3628e-07
1.38831e-07
1.4095e-07
1.43661e-07
1.46229e-07
1.48931e-07
1.51094e-07
1.5334e-07
1.56064e-07
1.58093e-07
1.59298e-07
1.60425e-07
1.61301e-07
1.6314e-07
1.64131e-07
1.65358e-07
1.64711e-07
1.64106e-07
1.64577e-07
1.63741e-07
1.62037e-07
1.60323e-07
1.59085e-07
1.57201e-07
1.54046e-07
1.5086e-07
1.48895e-07
1.46264e-07
1.4373e-07
1.40724e-07
1.37371e-07
1.34891e-07
1.31325e-07
1.27751e-07
1.24433e-07
1.21032e-07
1.18127e-07
1.15076e-07
1.12548e-07
1.08413e-07
1.04758e-07
1.01458e-07
9.8527e-08
9.5929e-08
9.28152e-08
9.05822e-08
8.84097e-08
8.65398e-08
8.46588e-08
8.1971e-08
8.031e-08
7.81825e-08
7.65685e-08
7.5013e-08
7.33584e-08
7.23887e-08
7.11936e-08
7.08136e-08
7.02476e-08
6.96213e-08
6.92898e-08
6.91621e-08
6.92123e-08
6.92143e-08
6.92511e-08
6.93248e-08
6.97461e-08
7.01691e-08
7.05146e-08
7.10951e-08
1.95148e-07
1.96444e-07
1.99909e-07
2.03189e-07
2.08137e-07
2.13146e-07
2.18558e-07
2.25739e-07
2.32282e-07
2.39945e-07
2.47088e-07
2.55264e-07
2.62229e-07
2.71154e-07
2.80435e-07
2.88312e-07
2.99123e-07
3.09082e-07
3.19485e-07
3.2981e-07
3.38322e-07
3.48721e-07
3.58173e-07
3.69898e-07
3.8015e-07
3.911e-07
4.0172e-07
4.12952e-07
4.24472e-07
4.35308e-07
4.44039e-07
4.52305e-07
4.61463e-07
4.70056e-07
4.77699e-07
4.85449e-07
4.93014e-07
5.00037e-07
5.06506e-07
5.10761e-07
5.13713e-07
5.17431e-07
5.21945e-07
5.25523e-07
5.27767e-07
5.27569e-07
5.25879e-07
5.25716e-07
5.22569e-07
5.1931e-07
5.13437e-07
5.08911e-07
5.04045e-07
4.95395e-07
4.86129e-07
4.7829e-07
4.71035e-07
4.6173e-07
4.52799e-07
4.44774e-07
4.3469e-07
4.25755e-07
4.14286e-07
4.04553e-07
3.94233e-07
3.84999e-07
3.76495e-07
3.65225e-07
3.55474e-07
3.43116e-07
3.32297e-07
3.23412e-07
3.13989e-07
3.05185e-07
2.95957e-07
2.87762e-07
2.80219e-07
2.73443e-07
2.66172e-07
2.57228e-07
2.50729e-07
2.44133e-07
2.37354e-07
2.31942e-07
2.26142e-07
2.21956e-07
2.17892e-07
2.13869e-07
2.1005e-07
2.06307e-07
2.03625e-07
2.01298e-07
1.99483e-07
1.96911e-07
1.95243e-07
1.93687e-07
1.92947e-07
1.93286e-07
1.9335e-07
5.72119e-07
5.76778e-07
5.8719e-07
5.97404e-07
6.11031e-07
6.259e-07
6.42688e-07
6.62168e-07
6.8068e-07
7.02189e-07
7.23417e-07
7.46264e-07
7.68447e-07
7.90246e-07
8.17847e-07
8.40218e-07
8.67099e-07
8.93595e-07
9.20614e-07
9.50183e-07
9.73804e-07
1.00048e-06
1.02701e-06
1.05819e-06
1.08703e-06
1.11266e-06
1.14068e-06
1.16527e-06
1.19846e-06
1.22311e-06
1.24727e-06
1.26992e-06
1.29057e-06
1.31423e-06
1.33268e-06
1.34947e-06
1.36803e-06
1.38214e-06
1.39427e-06
1.4051e-06
1.41036e-06
1.41926e-06
1.429e-06
1.4328e-06
1.43281e-06
1.43072e-06
1.42359e-06
1.4217e-06
1.41094e-06
1.40029e-06
1.38448e-06
1.36792e-06
1.35154e-06
1.33256e-06
1.30516e-06
1.28459e-06
1.26294e-06
1.23698e-06
1.2099e-06
1.18951e-06
1.1649e-06
1.14202e-06
1.11501e-06
1.09095e-06
1.06438e-06
1.03693e-06
1.01677e-06
9.89716e-07
9.6514e-07
9.35865e-07
9.11785e-07
8.87602e-07
8.64106e-07
8.43753e-07
8.2107e-07
8.01188e-07
7.80562e-07
7.63029e-07
7.46723e-07
7.25519e-07
7.09601e-07
6.9299e-07
6.76175e-07
6.62219e-07
6.47767e-07
6.38011e-07
6.26855e-07
6.18369e-07
6.09042e-07
5.99429e-07
5.92708e-07
5.85996e-07
5.80374e-07
5.7422e-07
5.69327e-07
5.65693e-07
5.64496e-07
5.65719e-07
5.66536e-07
1.10886e-06
1.11583e-06
1.13481e-06
1.15748e-06
1.18428e-06
1.21605e-06
1.24781e-06
1.28323e-06
1.3226e-06
1.36216e-06
1.40756e-06
1.45019e-06
1.49375e-06
1.53956e-06
1.58718e-06
1.63882e-06
1.68732e-06
1.73528e-06
1.7877e-06
1.83914e-06
1.89512e-06
1.94102e-06
2.00053e-06
2.05931e-06
2.12214e-06
2.17789e-06
2.23576e-06
2.29114e-06
2.35141e-06
2.40542e-06
2.45594e-06
2.50135e-06
2.54569e-06
2.59091e-06
2.63324e-06
2.666e-06
2.70284e-06
2.73388e-06
2.7525e-06
2.77132e-06
2.78508e-06
2.7989e-06
2.8175e-06
2.82382e-06
2.81544e-06
2.8067e-06
2.79509e-06
2.78732e-06
2.76758e-06
2.74118e-06
2.71597e-06
2.6809e-06
2.64476e-06
2.61107e-06
2.56085e-06
2.51901e-06
2.46821e-06
2.42259e-06
2.36841e-06
2.3267e-06
2.28482e-06
2.23481e-06
2.18529e-06
2.13787e-06
2.08907e-06
2.03903e-06
1.98776e-06
1.93995e-06
1.89007e-06
1.83678e-06
1.79036e-06
1.74157e-06
1.69952e-06
1.65051e-06
1.6061e-06
1.56197e-06
1.52096e-06
1.48626e-06
1.4529e-06
1.41844e-06
1.38395e-06
1.35348e-06
1.32261e-06
1.29337e-06
1.26661e-06
1.24493e-06
1.22279e-06
1.20459e-06
1.18729e-06
1.16781e-06
1.15232e-06
1.14039e-06
1.12711e-06
1.11473e-06
1.10471e-06
1.0963e-06
1.09216e-06
1.09539e-06
1.097e-06
1.94088e-06
1.9559e-06
1.9892e-06
2.03605e-06
2.0905e-06
2.1547e-06
2.22005e-06
2.28676e-06
2.3649e-06
2.4418e-06
2.52411e-06
2.6047e-06
2.68781e-06
2.77701e-06
2.86548e-06
2.96035e-06
3.05534e-06
3.14857e-06
3.24104e-06
3.33469e-06
3.43298e-06
3.5209e-06
3.61029e-06
3.69619e-06
3.79179e-06
3.87603e-06
3.96284e-06
4.04993e-06
4.13767e-06
4.21892e-06
4.29241e-06
4.36463e-06
4.42781e-06
4.49679e-06
4.5582e-06
4.60724e-06
4.66134e-06
4.70906e-06
4.7363e-06
4.74925e-06
4.76989e-06
4.78498e-06
4.80333e-06
4.80251e-06
4.7867e-06
4.76086e-06
4.73632e-06
4.71519e-06
4.68195e-06
4.63654e-06
4.58961e-06
4.53112e-06
4.46956e-06
4.40808e-06
4.33135e-06
4.25503e-06
4.17588e-06
4.09736e-06
4.01604e-06
3.94493e-06
3.8768e-06
3.80215e-06
3.72444e-06
3.65111e-06
3.5733e-06
3.49698e-06
3.42044e-06
3.34375e-06
3.27452e-06
3.19937e-06
3.1253e-06
3.05407e-06
2.98926e-06
2.92074e-06
2.85488e-06
2.78374e-06
2.72271e-06
2.66333e-06
2.6023e-06
2.54444e-06
2.48302e-06
2.42591e-06
2.37355e-06
2.3186e-06
2.2712e-06
2.22659e-06
2.18588e-06
2.14692e-06
2.11421e-06
2.0782e-06
2.04317e-06
2.01563e-06
1.98894e-06
1.96458e-06
1.94086e-06
1.92483e-06
1.91226e-06
1.91476e-06
1.91845e-06
3.00822e-06
3.02646e-06
3.07638e-06
3.13372e-06
3.21247e-06
3.29984e-06
3.39319e-06
3.49436e-06
3.59887e-06
3.71425e-06
3.83103e-06
3.97851e-06
4.13437e-06
4.29048e-06
4.46051e-06
4.63621e-06
4.81795e-06
4.99636e-06
5.16901e-06
5.355e-06
5.52735e-06
5.71242e-06
5.88345e-06
6.04512e-06
6.20058e-06
6.33261e-06
6.47367e-06
6.60693e-06
6.74013e-06
6.87616e-06
6.99431e-06
7.10786e-06
7.22353e-06
7.3345e-06
7.42933e-06
7.50299e-06
7.58439e-06
7.65982e-06
7.70619e-06
7.72718e-06
7.74368e-06
7.7585e-06
7.77749e-06
7.75818e-06
7.7228e-06
7.68405e-06
7.62353e-06
7.57408e-06
7.52391e-06
7.44486e-06
7.36875e-06
7.27257e-06
7.17294e-06
7.0567e-06
6.94121e-06
6.81119e-06
6.68632e-06
6.55191e-06
6.4251e-06
6.31491e-06
6.20473e-06
6.08835e-06
5.97005e-06
5.85327e-06
5.73526e-06
5.61207e-06
5.48644e-06
5.3677e-06
5.25912e-06
5.14487e-06
5.03253e-06
4.91948e-06
4.807e-06
4.70359e-06
4.59312e-06
4.48932e-06
4.39548e-06
4.2966e-06
4.19659e-06
4.08466e-06
3.98038e-06
3.8674e-06
3.7685e-06
3.66648e-06
3.56835e-06
3.48016e-06
3.39469e-06
3.3185e-06
3.24511e-06
3.19525e-06
3.15177e-06
3.11254e-06
3.0753e-06
3.04503e-06
3.01306e-06
2.98611e-06
2.97375e-06
2.96928e-06
2.97661e-06
4.51577e-06
4.54041e-06
4.63483e-06
4.73477e-06
4.859e-06
5.00044e-06
5.15073e-06
5.31507e-06
5.48634e-06
5.66411e-06
5.81133e-06
5.95235e-06
6.12268e-06
6.29721e-06
6.48199e-06
6.6862e-06
6.87938e-06
7.07711e-06
7.31231e-06
7.5565e-06
7.81346e-06
8.06004e-06
8.32305e-06
8.57927e-06
8.83479e-06
9.06928e-06
9.29482e-06
9.51454e-06
9.72127e-06
9.94678e-06
1.01479e-05
1.03346e-05
1.05417e-05
1.07399e-05
1.08905e-05
1.10255e-05
1.11497e-05
1.12632e-05
1.13442e-05
1.13841e-05
1.14167e-05
1.14284e-05
1.14483e-05
1.14328e-05
1.13629e-05
1.13161e-05
1.12297e-05
1.11271e-05
1.10433e-05
1.09408e-05
1.0819e-05
1.06812e-05
1.05376e-05
1.03519e-05
1.01691e-05
9.99107e-06
9.80336e-06
9.60533e-06
9.40524e-06
9.23421e-06
9.06994e-06
8.89336e-06
8.7292e-06
8.55631e-06
8.36769e-06
8.18775e-06
8.00043e-06
7.8133e-06
7.64245e-06
7.47007e-06
7.28956e-06
7.10911e-06
6.9429e-06
6.76959e-06
6.59793e-06
6.42651e-06
6.27317e-06
6.128e-06
5.98506e-06
5.83675e-06
5.69037e-06
5.55334e-06
5.45271e-06
5.35865e-06
5.2664e-06
5.18108e-06
5.10836e-06
5.04262e-06
4.96079e-06
4.8609e-06
4.77918e-06
4.70859e-06
4.64246e-06
4.57826e-06
4.52781e-06
4.47971e-06
4.45573e-06
4.45082e-06
4.45849e-06
6.10443e-06
6.12864e-06
6.22942e-06
6.35767e-06
6.55284e-06
6.79305e-06
7.06803e-06
7.34768e-06
7.66514e-06
7.98146e-06
8.32441e-06
8.55602e-06
8.80824e-06
9.07061e-06
9.34092e-06
9.63324e-06
9.91654e-06
1.01778e-05
1.04388e-05
1.0705e-05
1.09888e-05
1.12791e-05
1.15631e-05
1.18739e-05
1.22067e-05
1.25311e-05
1.2845e-05
1.3118e-05
1.34135e-05
1.369e-05
1.3962e-05
1.42327e-05
1.44894e-05
1.47596e-05
1.49865e-05
1.51653e-05
1.53161e-05
1.54531e-05
1.55581e-05
1.55871e-05
1.56208e-05
1.56558e-05
1.56502e-05
1.56195e-05
1.55285e-05
1.54281e-05
1.53175e-05
1.51813e-05
1.50385e-05
1.49061e-05
1.47462e-05
1.45611e-05
1.43459e-05
1.41156e-05
1.38557e-05
1.36197e-05
1.33787e-05
1.31204e-05
1.28665e-05
1.26216e-05
1.2395e-05
1.21723e-05
1.19451e-05
1.17196e-05
1.14888e-05
1.12387e-05
1.09997e-05
1.07591e-05
1.05294e-05
1.03147e-05
1.00764e-05
9.84047e-06
9.60538e-06
9.39063e-06
9.17373e-06
8.95304e-06
8.77115e-06
8.63914e-06
8.51004e-06
8.37369e-06
8.22196e-06
8.0486e-06
7.86961e-06
7.73102e-06
7.59836e-06
7.4704e-06
7.36119e-06
7.2579e-06
7.16375e-06
6.99511e-06
6.81524e-06
6.64212e-06
6.48072e-06
6.32736e-06
6.18945e-06
6.08482e-06
6.03364e-06
6.02915e-06
6.02851e-06
8.41019e-06
8.44411e-06
8.59665e-06
8.73362e-06
8.90083e-06
9.10181e-06
9.32539e-06
9.5759e-06
9.82898e-06
1.01205e-05
1.05156e-05
1.09231e-05
1.13564e-05
1.18027e-05
1.22943e-05
1.27794e-05
1.33001e-05
1.38121e-05
1.42588e-05
1.46691e-05
1.50664e-05
1.54734e-05
1.58653e-05
1.62025e-05
1.65387e-05
1.68819e-05
1.72054e-05
1.7571e-05
1.79661e-05
1.83141e-05
1.86689e-05
1.90256e-05
1.93894e-05
1.96774e-05
1.99775e-05
2.02105e-05
2.03973e-05
2.05566e-05
2.06717e-05
2.07361e-05
2.0722e-05
2.07555e-05
2.07447e-05
2.06923e-05
2.05885e-05
2.04457e-05
2.02601e-05
2.00721e-05
1.99024e-05
1.96768e-05
1.94508e-05
1.92275e-05
1.89482e-05
1.8629e-05
1.83239e-05
1.80219e-05
1.77188e-05
1.73866e-05
1.7077e-05
1.67674e-05
1.64734e-05
1.61867e-05
1.59049e-05
1.56103e-05
1.53167e-05
1.50206e-05
1.47042e-05
1.44272e-05
1.41287e-05
1.3844e-05
1.35644e-05
1.32791e-05
1.29926e-05
1.27735e-05
1.25909e-05
1.23811e-05
1.21506e-05
1.19287e-05
1.1745e-05
1.15526e-05
1.13675e-05
1.11364e-05
1.08167e-05
1.05251e-05
1.0236e-05
9.9716e-06
9.71342e-06
9.47758e-06
9.2502e-06
9.02513e-06
8.90964e-06
8.80803e-06
8.70499e-06
8.60583e-06
8.50371e-06
8.39938e-06
8.29704e-06
8.28766e-06
8.29072e-06
1.10166e-05
1.10584e-05
1.12978e-05
1.15814e-05
1.18629e-05
1.21339e-05
1.24173e-05
1.27402e-05
1.30455e-05
1.33288e-05
1.36196e-05
1.39973e-05
1.43787e-05
1.48984e-05
1.54542e-05
1.60488e-05
1.66728e-05
1.73023e-05
1.79241e-05
1.85683e-05
1.92722e-05
1.99388e-05
2.06213e-05
2.12086e-05
2.16929e-05
2.21384e-05
2.25154e-05
2.28903e-05
2.32883e-05
2.37348e-05
2.41693e-05
2.46196e-05
2.50523e-05
2.54278e-05
2.57681e-05
2.60414e-05
2.62649e-05
2.64381e-05
2.65727e-05
2.6646e-05
2.66637e-05
2.66146e-05
2.65849e-05
2.65287e-05
2.64119e-05
2.62289e-05
2.6014e-05
2.57335e-05
2.54802e-05
2.51795e-05
2.48838e-05
2.45585e-05
2.42618e-05
2.38862e-05
2.35213e-05
2.31514e-05
2.27931e-05
2.24052e-05
2.20169e-05
2.16283e-05
2.12695e-05
2.09176e-05
2.05533e-05
2.02149e-05
1.98637e-05
1.95076e-05
1.91246e-05
1.87644e-05
1.84329e-05
1.80918e-05
1.77788e-05
1.75029e-05
1.72173e-05
1.691e-05
1.66758e-05
1.64509e-05
1.61581e-05
1.57533e-05
1.53674e-05
1.49905e-05
1.46045e-05
1.42356e-05
1.38688e-05
1.3513e-05
1.31835e-05
1.28774e-05
1.26172e-05
1.24796e-05
1.2346e-05
1.21521e-05
1.19385e-05
1.1785e-05
1.16502e-05
1.15195e-05
1.13818e-05
1.12574e-05
1.10563e-05
1.09409e-05
1.08959e-05
1.34372e-05
1.34512e-05
1.36123e-05
1.38831e-05
1.42558e-05
1.47141e-05
1.52019e-05
1.57465e-05
1.63412e-05
1.69357e-05
1.7375e-05
1.78318e-05
1.82869e-05
1.87324e-05
1.92498e-05
1.98798e-05
2.06222e-05
2.13729e-05
2.21015e-05
2.2896e-05
2.3688e-05
2.4524e-05
2.53306e-05
2.61477e-05
2.69173e-05
2.76281e-05
2.83016e-05
2.88664e-05
2.93601e-05
2.97965e-05
3.03376e-05
3.08576e-05
3.13256e-05
3.17786e-05
3.21596e-05
3.25068e-05
3.27698e-05
3.29443e-05
3.30956e-05
3.31684e-05
3.31997e-05
3.31725e-05
3.30731e-05
3.29793e-05
3.28378e-05
3.25983e-05
3.23304e-05
3.19909e-05
3.16538e-05
3.12875e-05
3.09444e-05
3.0575e-05
3.01872e-05
2.97989e-05
2.93819e-05
2.89569e-05
2.85169e-05
2.8079e-05
2.76164e-05
2.71682e-05
2.67395e-05
2.63252e-05
2.59071e-05
2.54776e-05
2.50519e-05
2.46328e-05
2.42049e-05
2.37703e-05
2.33739e-05
2.30112e-05
2.2683e-05
2.23478e-05
2.20647e-05
2.16171e-05
2.11559e-05
2.07151e-05
2.02599e-05
1.98143e-05
1.93755e-05
1.89265e-05
1.8462e-05
1.80236e-05
1.76201e-05
1.72349e-05
1.69096e-05
1.6723e-05
1.64591e-05
1.62085e-05
1.60399e-05
1.58791e-05
1.54722e-05
1.50417e-05
1.46334e-05
1.42573e-05
1.39187e-05
1.3624e-05
1.34133e-05
1.33373e-05
1.33125e-05
1.69259e-05
1.69104e-05
1.70638e-05
1.72186e-05
1.74455e-05
1.77541e-05
1.8148e-05
1.87059e-05
1.93021e-05
1.99759e-05
2.06839e-05
2.14673e-05
2.23162e-05
2.30347e-05
2.36727e-05
2.42475e-05
2.49305e-05
2.57829e-05
2.67123e-05
2.76366e-05
2.85997e-05
2.95471e-05
3.0524e-05
3.15118e-05
3.2413e-05
3.3259e-05
3.4062e-05
3.49242e-05
3.57319e-05
3.63431e-05
3.69299e-05
3.75441e-05
3.80937e-05
3.85433e-05
3.8948e-05
3.93433e-05
3.969e-05
3.99051e-05
4.00344e-05
4.01662e-05
4.01793e-05
4.01704e-05
4.00446e-05
3.98842e-05
3.97094e-05
3.94195e-05
3.90966e-05
3.87264e-05
3.82833e-05
3.78768e-05
3.74752e-05
3.71007e-05
3.66968e-05
3.62684e-05
3.58071e-05
3.53198e-05
3.48351e-05
3.43327e-05
3.38247e-05
3.33184e-05
3.28219e-05
3.2328e-05
3.18601e-05
3.13501e-05
3.08355e-05
3.03347e-05
2.98587e-05
2.94052e-05
2.89553e-05
2.84907e-05
2.81367e-05
2.76785e-05
2.71687e-05
2.66628e-05
2.61552e-05
2.56247e-05
2.5091e-05
2.4573e-05
2.40784e-05
2.3575e-05
2.30395e-05
2.25199e-05
2.20425e-05
2.17366e-05
2.14207e-05
2.11371e-05
2.08801e-05
2.02808e-05
1.97525e-05
1.92348e-05
1.87737e-05
1.8301e-05
1.78552e-05
1.75421e-05
1.73315e-05
1.71489e-05
1.69319e-05
1.68117e-05
1.67373e-05
2.05196e-05
2.04594e-05
2.07558e-05
2.09954e-05
2.12773e-05
2.15742e-05
2.1826e-05
2.21532e-05
2.26944e-05
2.33573e-05
2.41385e-05
2.5004e-05
2.58985e-05
2.69684e-05
2.8026e-05
2.8921e-05
2.96444e-05
3.04613e-05
3.15489e-05
3.26325e-05
3.37423e-05
3.48777e-05
3.60332e-05
3.71342e-05
3.82087e-05
3.92018e-05
4.0182e-05
4.11536e-05
4.20925e-05
4.29748e-05
4.37368e-05
4.44227e-05
4.50577e-05
4.55298e-05
4.5986e-05
4.63964e-05
4.67814e-05
4.70455e-05
4.72292e-05
4.73731e-05
4.74225e-05
4.7337e-05
4.72307e-05
4.70297e-05
4.68174e-05
4.6464e-05
4.61051e-05
4.57151e-05
4.5211e-05
4.47757e-05
4.43775e-05
4.39981e-05
4.35891e-05
4.31473e-05
4.26585e-05
4.2123e-05
4.16085e-05
4.10244e-05
4.04861e-05
3.99483e-05
3.93975e-05
3.88954e-05
3.83266e-05
3.77284e-05
3.71425e-05
3.66144e-05
3.60867e-05
3.55727e-05
3.50898e-05
3.45531e-05
3.39051e-05
3.34389e-05
3.2899e-05
3.23376e-05
3.17811e-05
3.11802e-05
3.06114e-05
2.99963e-05
2.94005e-05
2.88322e-05
2.82679e-05
2.77035e-05
2.72035e-05
2.68384e-05
2.63957e-05
2.56904e-05
2.50805e-05
2.44512e-05
2.38498e-05
2.32755e-05
2.27366e-05
2.23445e-05
2.19937e-05
2.1621e-05
2.13087e-05
2.11103e-05
2.08672e-05
2.05757e-05
2.03533e-05
2.36448e-05
2.35519e-05
2.37712e-05
2.41285e-05
2.45647e-05
2.51618e-05
2.56907e-05
2.6061e-05
2.64282e-05
2.69421e-05
2.77478e-05
2.86599e-05
2.97138e-05
3.0812e-05
3.20424e-05
3.324e-05
3.43767e-05
3.53062e-05
3.64647e-05
3.7735e-05
3.90192e-05
4.03159e-05
4.1625e-05
4.28621e-05
4.40576e-05
4.5255e-05
4.64259e-05
4.75021e-05
4.86078e-05
4.96375e-05
5.05655e-05
5.13433e-05
5.20171e-05
5.25942e-05
5.3127e-05
5.35648e-05
5.39628e-05
5.42313e-05
5.44156e-05
5.45386e-05
5.45902e-05
5.45603e-05
5.44123e-05
5.42046e-05
5.39643e-05
5.36047e-05
5.32171e-05
5.2811e-05
5.23533e-05
5.19326e-05
5.15356e-05
5.11405e-05
5.07931e-05
5.0296e-05
4.978e-05
4.92596e-05
4.86564e-05
4.80653e-05
4.74207e-05
4.68764e-05
4.63437e-05
4.57701e-05
4.51531e-05
4.45476e-05
4.39243e-05
4.33352e-05
4.27687e-05
4.22012e-05
4.17032e-05
4.12076e-05
4.04067e-05
3.96494e-05
3.91454e-05
3.85807e-05
3.79568e-05
3.73324e-05
3.667e-05
3.60275e-05
3.53144e-05
3.46345e-05
3.40237e-05
3.33345e-05
3.28545e-05
3.21132e-05
3.13311e-05
3.06026e-05
2.98339e-05
2.91745e-05
2.8495e-05
2.78349e-05
2.73773e-05
2.6911e-05
2.64954e-05
2.59108e-05
2.52191e-05
2.46458e-05
2.41785e-05
2.38179e-05
2.35312e-05
2.717e-05
2.69461e-05
2.71398e-05
2.74183e-05
2.78254e-05
2.83351e-05
2.8886e-05
2.95532e-05
3.01893e-05
3.06773e-05
3.13381e-05
3.23622e-05
3.34722e-05
3.46799e-05
3.59904e-05
3.73927e-05
3.87538e-05
4.0025e-05
4.13305e-05
4.27783e-05
4.42935e-05
4.57804e-05
4.71534e-05
4.85874e-05
4.99183e-05
5.12598e-05
5.25874e-05
5.39071e-05
5.51016e-05
5.6245e-05
5.72239e-05
5.81275e-05
5.88434e-05
5.95456e-05
6.01216e-05
6.06981e-05
6.1055e-05
6.13039e-05
6.14817e-05
6.15676e-05
6.15734e-05
6.16051e-05
6.15078e-05
6.1293e-05
6.10084e-05
6.07138e-05
6.03107e-05
5.99622e-05
5.96068e-05
5.92515e-05
5.88897e-05
5.84646e-05
5.80643e-05
5.75805e-05
5.70455e-05
5.64815e-05
5.58535e-05
5.52228e-05
5.45789e-05
5.39786e-05
5.34347e-05
5.2852e-05
5.22078e-05
5.16323e-05
5.10735e-05
5.0405e-05
4.97963e-05
4.91762e-05
4.86964e-05
4.82202e-05
4.75957e-05
4.66732e-05
4.58395e-05
4.52124e-05
4.45819e-05
4.3923e-05
4.32276e-05
4.24509e-05
4.1736e-05
4.0942e-05
4.02184e-05
3.94327e-05
3.85942e-05
3.76335e-05
3.67811e-05
3.59477e-05
3.51366e-05
3.43012e-05
3.35652e-05
3.28604e-05
3.23242e-05
3.16201e-05
3.06985e-05
2.98826e-05
2.9151e-05
2.8487e-05
2.79365e-05
2.7502e-05
2.71139e-05
3.10217e-05
3.0607e-05
3.06074e-05
3.08151e-05
3.11249e-05
3.15645e-05
3.20467e-05
3.26739e-05
3.34385e-05
3.42176e-05
3.49167e-05
3.59131e-05
3.70894e-05
3.83814e-05
3.98136e-05
4.13449e-05
4.2883e-05
4.44493e-05
4.59401e-05
4.76181e-05
4.93278e-05
5.09801e-05
5.26386e-05
5.41504e-05
5.5651e-05
5.719e-05
5.87636e-05
6.0174e-05
6.14236e-05
6.25594e-05
6.36343e-05
6.45222e-05
6.54366e-05
6.62299e-05
6.7e-05
6.7516e-05
6.78231e-05
6.81358e-05
6.82931e-05
6.83627e-05
6.83702e-05
6.83848e-05
6.83958e-05
6.83132e-05
6.80734e-05
6.78176e-05
6.75758e-05
6.73141e-05
6.71732e-05
6.68967e-05
6.66165e-05
6.62037e-05
6.56846e-05
6.51217e-05
6.45496e-05
6.38898e-05
6.32172e-05
6.25154e-05
6.18895e-05
6.11964e-05
6.0584e-05
5.99964e-05
5.94542e-05
5.88429e-05
5.82786e-05
5.77439e-05
5.70529e-05
5.64898e-05
5.59862e-05
5.54661e-05
5.49919e-05
5.43981e-05
5.33832e-05
5.24148e-05
5.15092e-05
5.08456e-05
5.01242e-05
4.93727e-05
4.84967e-05
4.76347e-05
4.6822e-05
4.59196e-05
4.46103e-05
4.35506e-05
4.26192e-05
4.16417e-05
4.07221e-05
3.98193e-05
3.88701e-05
3.81529e-05
3.71677e-05
3.61613e-05
3.51604e-05
3.42399e-05
3.33811e-05
3.26356e-05
3.19774e-05
3.15508e-05
3.10501e-05
3.48144e-05
3.43421e-05
3.41951e-05
3.41555e-05
3.43428e-05
3.46296e-05
3.50798e-05
3.56973e-05
3.64413e-05
3.7331e-05
3.8201e-05
3.91909e-05
4.04522e-05
4.18413e-05
4.33761e-05
4.5003e-05
4.6693e-05
4.84298e-05
5.01985e-05
5.20466e-05
5.39588e-05
5.58085e-05
5.77106e-05
5.94659e-05
6.12848e-05
6.30149e-05
6.47171e-05
6.61086e-05
6.74619e-05
6.85537e-05
6.96328e-05
7.06717e-05
7.16908e-05
7.26221e-05
7.34191e-05
7.40498e-05
7.45524e-05
7.4913e-05
7.51842e-05
7.53102e-05
7.53875e-05
7.54037e-05
7.54545e-05
7.54598e-05
7.53923e-05
7.52699e-05
7.51585e-05
7.50678e-05
7.50604e-05
7.49597e-05
7.47393e-05
7.43467e-05
7.38363e-05
7.32801e-05
7.27083e-05
7.20862e-05
7.14269e-05
7.07415e-05
7.00607e-05
6.93218e-05
6.84964e-05
6.77354e-05
6.69811e-05
6.62604e-05
6.55228e-05
6.50399e-05
6.4525e-05
6.39512e-05
6.34657e-05
6.29148e-05
6.24977e-05
6.20576e-05
6.13672e-05
6.04001e-05
5.92734e-05
5.81825e-05
5.73374e-05
5.65678e-05
5.55817e-05
5.46373e-05
5.36866e-05
5.26875e-05
5.11154e-05
4.97723e-05
4.86698e-05
4.75984e-05
4.65123e-05
4.54922e-05
4.43618e-05
4.3289e-05
4.20755e-05
4.09186e-05
3.98236e-05
3.87813e-05
3.77724e-05
3.68952e-05
3.61559e-05
3.55715e-05
3.49224e-05
3.8123e-05
3.74968e-05
3.74371e-05
3.73413e-05
3.73128e-05
3.75012e-05
3.79249e-05
3.84274e-05
3.91659e-05
4.01049e-05
4.10637e-05
4.21342e-05
4.34619e-05
4.49166e-05
4.65404e-05
4.82602e-05
5.01485e-05
5.19762e-05
5.3925e-05
5.60142e-05
5.80408e-05
6.0222e-05
6.23731e-05
6.44797e-05
6.65311e-05
6.85071e-05
7.00635e-05
7.15877e-05
7.30013e-05
7.4151e-05
7.52889e-05
7.65716e-05
7.78502e-05
7.89704e-05
7.98077e-05
8.05567e-05
8.11076e-05
8.14923e-05
8.18402e-05
8.20808e-05
8.22401e-05
8.22666e-05
8.2184e-05
8.22093e-05
8.22521e-05
8.22811e-05
8.23829e-05
8.25183e-05
8.24909e-05
8.24164e-05
8.21493e-05
8.18531e-05
8.14419e-05
8.10027e-05
8.06003e-05
8.01072e-05
7.95898e-05
7.90568e-05
7.85362e-05
7.78783e-05
7.71262e-05
7.62914e-05
7.55416e-05
7.48401e-05
7.39869e-05
7.31843e-05
7.25711e-05
7.18675e-05
7.10576e-05
7.06693e-05
7.00466e-05
6.96136e-05
6.90766e-05
6.83882e-05
6.77148e-05
6.64153e-05
6.50359e-05
6.37835e-05
6.28052e-05
6.17944e-05
6.0744e-05
5.9656e-05
5.81596e-05
5.62201e-05
5.4875e-05
5.36618e-05
5.24697e-05
5.12218e-05
4.99001e-05
4.83801e-05
4.69812e-05
4.57289e-05
4.44966e-05
4.32877e-05
4.21084e-05
4.10771e-05
4.01091e-05
3.92175e-05
3.83259e-05
4.11483e-05
4.03537e-05
4.00852e-05
4.00157e-05
3.98687e-05
4.00203e-05
4.03158e-05
4.07972e-05
4.14774e-05
4.23929e-05
4.34125e-05
4.45223e-05
4.60448e-05
4.75919e-05
4.92362e-05
5.11024e-05
5.30238e-05
5.50408e-05
5.72314e-05
5.93559e-05
6.17445e-05
6.42946e-05
6.66099e-05
6.89639e-05
7.11447e-05
7.30297e-05
7.48745e-05
7.64083e-05
7.79972e-05
7.9586e-05
8.0918e-05
8.23161e-05
8.36638e-05
8.48257e-05
8.57298e-05
8.63632e-05
8.68082e-05
8.72273e-05
8.75511e-05
8.7892e-05
8.8101e-05
8.81313e-05
8.81056e-05
8.82693e-05
8.84707e-05
8.87578e-05
8.91066e-05
8.93711e-05
8.93671e-05
8.92033e-05
8.89932e-05
8.87456e-05
8.84139e-05
8.80821e-05
8.75605e-05
8.7052e-05
8.64466e-05
8.60868e-05
8.56762e-05
8.52431e-05
8.48365e-05
8.42044e-05
8.3807e-05
8.34043e-05
8.2996e-05
8.22268e-05
8.16121e-05
8.10424e-05
8.0245e-05
7.93098e-05
7.8277e-05
7.73378e-05
7.68223e-05
7.62056e-05
7.55054e-05
7.48855e-05
7.33869e-05
7.16346e-05
7.00214e-05
6.89432e-05
6.76982e-05
6.64836e-05
6.51567e-05
6.31085e-05
6.11103e-05
5.97098e-05
5.83064e-05
5.68634e-05
5.53047e-05
5.33982e-05
5.18365e-05
5.04122e-05
4.90131e-05
4.76739e-05
4.62341e-05
4.49928e-05
4.36805e-05
4.26208e-05
4.14841e-05
4.38426e-05
4.28929e-05
4.24065e-05
4.21707e-05
4.20023e-05
4.20209e-05
4.22607e-05
4.27192e-05
4.33585e-05
4.41439e-05
4.52126e-05
4.64105e-05
4.79559e-05
4.97615e-05
5.14572e-05
5.33698e-05
5.53376e-05
5.76005e-05
5.98357e-05
6.23861e-05
6.49551e-05
6.76961e-05
7.02621e-05
7.27076e-05
7.47207e-05
7.69368e-05
7.89944e-05
8.0888e-05
8.25229e-05
8.43e-05
8.59132e-05
8.73398e-05
8.85616e-05
8.96576e-05
9.05429e-05
9.12332e-05
9.19439e-05
9.26396e-05
9.33293e-05
9.39154e-05
9.43918e-05
9.47892e-05
9.50464e-05
9.52763e-05
9.56599e-05
9.61364e-05
9.6591e-05
9.67723e-05
9.6817e-05
9.68276e-05
9.68524e-05
9.67635e-05
9.64798e-05
9.623e-05
9.57199e-05
9.51772e-05
9.47385e-05
9.42941e-05
9.37056e-05
9.33071e-05
9.26868e-05
9.23218e-05
9.17661e-05
9.12319e-05
9.07579e-05
9.04906e-05
9.04814e-05
9.0381e-05
9.01401e-05
8.89866e-05
8.79735e-05
8.65772e-05
8.54626e-05
8.4197e-05
8.31666e-05
8.22265e-05
8.12538e-05
7.99693e-05
7.79908e-05
7.59933e-05
7.4444e-05
7.29953e-05
7.16014e-05
7.00622e-05
6.76071e-05
6.55111e-05
6.39154e-05
6.22673e-05
6.05565e-05
5.83961e-05
5.6542e-05
5.48837e-05
5.3339e-05
5.17465e-05
5.0103e-05
4.84756e-05
4.70284e-05
4.58027e-05
4.44005e-05
4.62701e-05
4.49552e-05
4.43471e-05
4.39081e-05
4.36728e-05
4.35109e-05
4.37358e-05
4.41462e-05
4.47391e-05
4.54505e-05
4.64008e-05
4.77062e-05
4.93195e-05
5.10305e-05
5.28639e-05
5.48162e-05
5.70434e-05
5.92797e-05
6.20469e-05
6.47804e-05
6.74069e-05
7.01161e-05
7.28204e-05
7.54207e-05
7.79725e-05
8.01996e-05
8.23269e-05
8.45152e-05
8.62609e-05
8.7952e-05
8.99172e-05
9.15429e-05
9.30852e-05
9.45592e-05
9.56984e-05
9.66677e-05
9.75273e-05
9.83165e-05
9.91485e-05
9.98497e-05
0.000100454
0.000101208
0.000101823
0.000102142
0.000102528
0.000102987
0.000103276
0.00010349
0.000103824
0.000104151
0.000104292
0.000104362
0.000104179
0.000103942
0.000103796
0.00010357
0.000103407
0.000103
0.000102582
0.000102291
0.000102018
0.000101876
0.000101611
0.000101215
0.000100794
0.00010042
9.98921e-05
9.94912e-05
9.86861e-05
9.80229e-05
9.73312e-05
9.63953e-05
9.49018e-05
9.33191e-05
9.15636e-05
8.98748e-05
8.83142e-05
8.71248e-05
8.56747e-05
8.35591e-05
8.14596e-05
7.9466e-05
7.78713e-05
7.63398e-05
7.42035e-05
7.15669e-05
6.93271e-05
6.75252e-05
6.55349e-05
6.33434e-05
6.09349e-05
5.90884e-05
5.73097e-05
5.5453e-05
5.36262e-05
5.16439e-05
5.0001e-05
4.85238e-05
4.69644e-05
4.82312e-05
4.66799e-05
4.58272e-05
4.51967e-05
4.48288e-05
4.45554e-05
4.45972e-05
4.49892e-05
4.54313e-05
4.61026e-05
4.70058e-05
4.83314e-05
4.97683e-05
5.14908e-05
5.35015e-05
5.54424e-05
5.77285e-05
6.0457e-05
6.33341e-05
6.61888e-05
6.90888e-05
7.18095e-05
7.45973e-05
7.73753e-05
8.02833e-05
8.26032e-05
8.49787e-05
8.72367e-05
8.95166e-05
9.16512e-05
9.37233e-05
9.56016e-05
9.73913e-05
9.90381e-05
0.000100438
0.000101615
0.000102692
0.000103686
0.000104447
0.000105191
0.000106071
0.000107014
0.000107926
0.000108516
0.000108993
0.000109357
0.000109744
0.000110352
0.000110997
0.00011151
0.000111787
0.000111811
0.000111797
0.000111685
0.000111757
0.000111848
0.000111783
0.00011166
0.000111667
0.000111461
0.000111719
0.000111868
0.00011202
0.000111968
0.000111972
0.000111456
0.000110527
0.000109651
0.000108798
0.000107871
0.000106426
0.000105017
0.000103141
0.000102079
0.000100386
9.84013e-05
9.62691e-05
9.4075e-05
9.21212e-05
9.06818e-05
8.87419e-05
8.64304e-05
8.40567e-05
8.19427e-05
7.99999e-05
7.77261e-05
7.4789e-05
7.23122e-05
7.00042e-05
6.78226e-05
6.51867e-05
6.28074e-05
6.0737e-05
5.88097e-05
5.67141e-05
5.4468e-05
5.25328e-05
5.0844e-05
4.89832e-05
4.95565e-05
4.77966e-05
4.67915e-05
4.59435e-05
4.53117e-05
4.50163e-05
4.49259e-05
4.50432e-05
4.54351e-05
4.60305e-05
4.6804e-05
4.80033e-05
4.9386e-05
5.11401e-05
5.31393e-05
5.52108e-05
5.76551e-05
6.06978e-05
6.34956e-05
6.67777e-05
6.99445e-05
7.26305e-05
7.56052e-05
7.87061e-05
8.15008e-05
8.44883e-05
8.70399e-05
8.94878e-05
9.21088e-05
9.46962e-05
9.68448e-05
9.91354e-05
0.000101056
0.000102725
0.000104457
0.000105936
0.000107271
0.000108549
0.000109454
0.000110411
0.000111623
0.000112841
0.000113936
0.000114949
0.000115718
0.000116297
0.000117101
0.000118007
0.000118872
0.000119457
0.000119872
0.00012008
0.000120407
0.000120771
0.000121003
0.00012137
0.000121598
0.000121918
0.000122177
0.000122178
0.000122325
0.000122578
0.000122886
0.000122816
0.00012221
0.000121485
0.000120588
0.000119339
0.000118634
0.000117649
0.000116316
0.00011449
0.000112316
0.000109981
0.000108223
0.00010588
0.00010435
0.000101787
9.95143e-05
9.68146e-05
9.47912e-05
9.27581e-05
9.01185e-05
8.71959e-05
8.47845e-05
8.25563e-05
7.98789e-05
7.67372e-05
7.39634e-05
7.14427e-05
6.89287e-05
6.6089e-05
6.36249e-05
6.14422e-05
5.9214e-05
5.685e-05
5.45277e-05
5.26271e-05
5.04126e-05
5.02705e-05
4.83251e-05
4.711e-05
4.59873e-05
4.52327e-05
4.47067e-05
4.43844e-05
4.43481e-05
4.46423e-05
4.49947e-05
4.57174e-05
4.66483e-05
4.80419e-05
4.96121e-05
5.17323e-05
5.39599e-05
5.68214e-05
5.9667e-05
6.30247e-05
6.61668e-05
6.94263e-05
7.24776e-05
7.57624e-05
7.88447e-05
8.19584e-05
8.52583e-05
8.80949e-05
9.11451e-05
9.4114e-05
9.68252e-05
9.92548e-05
0.000101699
0.000103738
0.000105733
0.000107873
0.000109796
0.000111638
0.000113116
0.000114453
0.000115881
0.00011739
0.000118811
0.000120118
0.000121338
0.000122513
0.00012351
0.000124546
0.000125393
0.000126228
0.000126943
0.000127684
0.000128454
0.000129459
0.000130129
0.000130745
0.000131438
0.000132088
0.000132942
0.000133699
0.000134132
0.000133993
0.000133909
0.000133924
0.000133861
0.000133038
0.000131723
0.000130632
0.000129281
0.000128128
0.000126636
0.000125118
0.000123425
0.000121456
0.000118664
0.000116169
0.00011355
0.000110809