/*--------------------------------*- C++ -*----------------------------------*\
| =========                 |                                                 |
| \\      /  F ield         | OpenFOAM: The Open Source CFD Toolbox           |
|  \\    /   O peration     | Version:  2.3.x                                 |
|   \\  /    A nd           | Web:      www.OpenFOAM.org                      |
|    \\/     M anipulation  |                                                 |
\*---------------------------------------------------------------------------*/
FoamFile
{
    version     2.0;
    format      ascii;
    class       volSymmTensorField;
    location    "10000";
    object      Tau;
}
// * * * * * * * * * * * * * * * * * * * * * * * * * * * * * * * * * * * * * //

dimensions      [0 2 -2 0 0 0 0];

internalField   nonuniform List<symmTensor> 
14751
(
(3.74632e-09 2.71364e-11 4.73702e-36 3.74629e-09 3.75577e-36 3.74631e-09)
(3.90621e-09 2.86903e-11 4.07666e-37 3.90617e-09 1.0192e-43 3.90619e-09)
(4.08596e-09 3.05306e-11 2.18032e-35 4.08594e-09 2.11573e-32 4.08595e-09)
(4.26969e-09 3.23137e-11 -2.21154e-35 4.26967e-09 9.19303e-34 4.26968e-09)
(4.46371e-09 3.42297e-11 1.47648e-35 4.4637e-09 -1.03355e-31 4.4637e-09)
(4.6655e-09 3.61401e-11 -1.69881e-33 4.6655e-09 -2.51099e-33 4.66549e-09)
(4.87196e-09 3.80558e-11 4.06429e-35 4.87197e-09 -1.35508e-33 4.87196e-09)
(5.08685e-09 4.00019e-11 1.47364e-35 5.08687e-09 2.34381e-35 5.08685e-09)
(5.307e-09 4.19271e-11 4.3382e-37 5.30703e-09 3.18756e-31 5.30701e-09)
(5.53593e-09 4.38748e-11 1.60396e-35 5.53596e-09 -2.10594e-32 5.53594e-09)
(5.77029e-09 4.58027e-11 -2.35736e-34 5.77033e-09 8.51229e-36 5.77031e-09)
(6.01227e-09 4.77319e-11 -4.37849e-33 6.01232e-09 1.98071e-33 6.01229e-09)
(6.25974e-09 4.96372e-11 2.67902e-34 6.2598e-09 -8.12589e-39 6.25977e-09)
(6.5113e-09 5.15099e-11 4.07357e-34 6.51137e-09 2.45832e-34 6.51133e-09)
(6.76844e-09 5.33655e-11 4.95706e-33 6.76851e-09 -6.50457e-31 6.76847e-09)
(7.02923e-09 5.519e-11 2.13208e-33 7.02931e-09 -1.02409e-31 7.02927e-09)
(7.29477e-09 5.70016e-11 -2.77493e-34 7.29485e-09 9.23973e-31 7.2948e-09)
(7.5621e-09 5.87734e-11 3.59016e-34 7.56218e-09 2.61101e-31 7.56213e-09)
(7.83343e-09 6.05375e-11 3.01867e-33 7.83352e-09 -2.74797e-31 7.83347e-09)
(8.10709e-09 6.2281e-11 2.55327e-33 8.10718e-09 -2.44199e-33 8.10713e-09)
(8.38483e-09 6.40314e-11 4.32481e-35 8.38492e-09 -1.66849e-31 8.38487e-09)
(8.66569e-09 6.57822e-11 3.06569e-33 8.66578e-09 1.71541e-31 8.66573e-09)
(8.94969e-09 6.75406e-11 -4.50465e-34 8.94978e-09 -5.42311e-34 8.94973e-09)
(9.23603e-09 6.9303e-11 9.83647e-35 9.23612e-09 5.93383e-34 9.23607e-09)
(9.52649e-09 7.10951e-11 -9.67781e-34 9.52658e-09 -6.16829e-34 9.52653e-09)
(9.8201e-09 7.29092e-11 -6.60773e-33 9.82018e-09 7.20587e-33 9.82013e-09)
(1.01161e-08 7.47435e-11 6.72985e-34 1.01162e-08 -1.67012e-30 1.01161e-08)
(1.04148e-08 7.66048e-11 -1.74145e-33 1.04148e-08 -2.25361e-30 1.04148e-08)
(1.07146e-08 7.84809e-11 2.48504e-34 1.07147e-08 -7.51571e-39 1.07147e-08)
(1.10163e-08 8.03834e-11 -4.6371e-37 1.10164e-08 9.58079e-31 1.10163e-08)
(1.13198e-08 8.23148e-11 -6.20276e-37 1.13199e-08 1.28156e-30 1.13199e-08)
(1.16249e-08 8.4275e-11 5.46161e-37 1.1625e-08 -1.18217e-30 1.16249e-08)
(1.19313e-08 8.6264e-11 -1.83249e-35 1.19314e-08 3.75562e-40 1.19313e-08)
(1.22384e-08 8.82778e-11 -4.4141e-35 1.22385e-08 1.57304e-31 1.22385e-08)
(1.25459e-08 9.03159e-11 -5.54945e-34 1.2546e-08 -1.62301e-30 1.25459e-08)
(1.28537e-08 9.23783e-11 -3.63215e-33 1.28538e-08 2.54799e-31 1.28537e-08)
(1.31597e-08 9.44437e-11 5.68951e-33 1.31598e-08 -9.03366e-32 1.31597e-08)
(1.34645e-08 9.65216e-11 3.69942e-33 1.34646e-08 -7.03393e-31 1.34645e-08)
(1.37667e-08 9.86e-11 -6.83689e-34 1.37668e-08 7.69011e-39 1.37667e-08)
(1.40664e-08 1.00679e-10 -5.33574e-36 1.40664e-08 4.40177e-41 1.40664e-08)
(1.43607e-08 1.0273e-10 -1.23198e-35 1.43607e-08 9.12331e-32 1.43607e-08)
(1.46503e-08 1.04764e-10 2.93598e-35 1.46503e-08 -9.32272e-32 1.46503e-08)
(1.49358e-08 1.06784e-10 8.70515e-36 1.49358e-08 3.28982e-31 1.49358e-08)
(1.52142e-08 1.08764e-10 -2.77379e-35 1.52142e-08 4.74467e-32 1.52142e-08)
(1.54859e-08 1.10708e-10 -1.19271e-36 1.54859e-08 -6.9347e-35 1.54859e-08)
(1.57487e-08 1.12594e-10 1.42408e-35 1.57487e-08 7.05862e-35 1.57487e-08)
(1.60017e-08 1.14412e-10 3.5986e-34 1.60017e-08 3.47843e-35 1.60017e-08)
(1.62437e-08 1.16154e-10 2.63558e-33 1.62437e-08 -9.83337e-32 1.62437e-08)
(1.64727e-08 1.17798e-10 -3.68657e-34 1.64727e-08 2.76394e-40 1.64727e-08)
(1.66869e-08 1.19328e-10 -9.69344e-37 1.66869e-08 -8.57373e-36 1.66869e-08)
(1.68848e-08 1.20729e-10 2.35481e-36 1.68848e-08 -1.15357e-32 1.68848e-08)
(1.70646e-08 1.21986e-10 1.64972e-36 1.70646e-08 1.16731e-32 1.70646e-08)
(1.72245e-08 1.23082e-10 -4.70795e-36 1.72245e-08 -1.68901e-35 1.72245e-08)
(1.73617e-08 1.23991e-10 -3.38097e-34 1.73617e-08 -1.78282e-31 1.73617e-08)
(1.74741e-08 1.24693e-10 -2.83571e-33 1.74741e-08 3.51425e-31 1.74741e-08)
(1.75594e-08 1.2517e-10 3.55663e-34 1.75594e-08 4.19959e-32 1.75594e-08)
(1.76163e-08 1.2541e-10 -1.59755e-35 1.76163e-08 -3.31665e-31 1.76163e-08)
(1.76425e-08 1.25396e-10 2.52719e-36 1.76425e-08 -4.06126e-32 1.76425e-08)
(1.76255e-08 1.25014e-10 -2.67477e-37 1.76255e-08 5.40357e-31 1.76255e-08)
(1.75559e-08 1.24179e-10 1.08729e-33 1.75559e-08 7.51401e-32 1.75559e-08)
(1.74266e-08 1.22835e-10 1.32358e-32 1.74266e-08 -7.7589e-32 1.74266e-08)
(1.72243e-08 1.20862e-10 2.08989e-32 1.72243e-08 5.11447e-32 1.72243e-08)
(1.69365e-08 1.18163e-10 -1.93961e-33 1.69366e-08 1.86943e-34 1.69365e-08)
(1.65504e-08 1.14633e-10 3.89705e-35 1.65505e-08 -1.12852e-31 1.65505e-08)
(1.6051e-08 1.10159e-10 -3.78007e-34 1.60511e-08 1.09313e-31 1.60511e-08)
(1.54319e-08 1.04724e-10 -4.55812e-33 1.5432e-08 2.47106e-33 1.54319e-08)
(1.46906e-08 9.83517e-11 4.91464e-33 1.46906e-08 -2.46277e-33 1.46906e-08)
(1.3833e-08 9.11473e-11 -3.25808e-34 1.38331e-08 -6.53058e-39 1.3833e-08)
(1.2873e-08 8.32888e-11 -5.04997e-35 1.28731e-08 -1.82632e-34 1.2873e-08)
(1.18374e-08 7.50586e-11 5.96548e-35 1.18375e-08 -4.40964e-31 1.18374e-08)
(1.07609e-08 6.67791e-11 -6.14818e-36 1.0761e-08 -1.62883e-40 1.07609e-08)
(9.68163e-09 5.87657e-11 8.54979e-39 9.68171e-09 7.06594e-32 9.68167e-09)
(8.63764e-09 5.12941e-11 -6.87494e-39 8.6377e-09 -6.24994e-32 8.63767e-09)
(7.66025e-09 4.45515e-11 -9.64646e-36 7.66029e-09 -3.32718e-40 7.66027e-09)
(6.77165e-09 3.86323e-11 -2.16342e-34 6.77169e-09 7.38945e-35 6.77167e-09)
(5.98427e-09 3.3551e-11 5.90883e-35 5.98429e-09 7.1046e-35 5.98428e-09)
(5.30176e-09 2.92661e-11 1.59934e-34 5.30177e-09 -5.20615e-35 5.30176e-09)
(4.72228e-09 2.5719e-11 -7.27945e-35 4.72228e-09 -8.18169e-35 4.72228e-09)
(4.24092e-09 2.28473e-11 1.33797e-34 4.24091e-09 -7.96641e-32 4.24091e-09)
(3.85103e-09 2.05933e-11 2.53717e-35 3.85102e-09 2.20097e-35 3.85102e-09)
(3.54147e-09 1.88703e-11 -1.08144e-34 3.54145e-09 8.30785e-36 3.54146e-09)
(3.2992e-09 1.75856e-11 8.51663e-37 3.29918e-09 1.42607e-32 3.29919e-09)
(3.11382e-09 1.6668e-11 -2.49796e-37 3.1138e-09 -5.85625e-34 3.11381e-09)
(2.97321e-09 1.60353e-11 2.30241e-35 2.97319e-09 -1.07213e-32 2.9732e-09)
(2.87001e-09 1.56417e-11 -2.16229e-35 2.86998e-09 5.40135e-36 2.86999e-09)
(2.79757e-09 1.54461e-11 -2.19346e-37 2.79754e-09 -7.01776e-42 2.79755e-09)
(2.75148e-09 1.54229e-11 -0 2.75144e-09 -0 2.75146e-09)
(2.72838e-09 1.55534e-11 -8.65632e-38 2.72835e-09 -4.09864e-32 2.72837e-09)
(2.72575e-09 1.58253e-11 -2.41108e-35 2.72571e-09 -4.58728e-32 2.72573e-09)
(2.74158e-09 1.62297e-11 1.48278e-33 2.74154e-09 2.10355e-34 2.74156e-09)
(2.77471e-09 1.67619e-11 1.83706e-35 2.77467e-09 1.67079e-33 2.77469e-09)
(2.8239e-09 1.74165e-11 3.73342e-39 2.82386e-09 -1.68619e-33 2.82388e-09)
(2.8888e-09 1.81984e-11 -5.58595e-36 2.88876e-09 2.15722e-34 2.88878e-09)
(2.96911e-09 1.91033e-11 -8.87672e-35 2.96907e-09 -2.44667e-34 2.96909e-09)
(3.06379e-09 2.0132e-11 4.93944e-35 3.06374e-09 -5.31003e-32 3.06377e-09)
(3.17383e-09 2.12939e-11 -2.30409e-36 3.17379e-09 1.57039e-33 3.17381e-09)
(3.29645e-09 2.25539e-11 -5.17385e-34 3.2964e-09 -3.98634e-32 3.29643e-09)
(3.43131e-09 2.39157e-11 -5.10311e-36 3.43127e-09 -1.57713e-36 3.43129e-09)
(3.5781e-09 2.54648e-11 1.15857e-33 3.57805e-09 3.99135e-35 3.57808e-09)
(7.0372e-08 1.80364e-09 5.24883e-30 7.0367e-08 -3.31105e-33 7.03693e-08)
(7.32898e-08 1.90374e-09 6.2812e-32 7.32847e-08 -3.03629e-32 7.32873e-08)
(7.65569e-08 2.01862e-09 1.14975e-29 7.65527e-08 -1.44234e-30 7.65547e-08)
(7.98769e-08 2.13151e-09 -8.30209e-32 7.98738e-08 -9.57981e-30 7.98753e-08)
(8.33697e-08 2.25048e-09 -2.56177e-29 8.33677e-08 7.38903e-30 8.33687e-08)
(8.69929e-08 2.37048e-09 -4.38692e-32 8.69925e-08 -4.67736e-31 8.69927e-08)
(9.06876e-08 2.49058e-09 -1.65807e-31 9.06884e-08 -5.34626e-33 9.0688e-08)
(9.44916e-08 2.61165e-09 9.63091e-31 9.44938e-08 -4.28904e-33 9.44927e-08)
(9.83841e-08 2.73242e-09 3.3068e-29 9.83878e-08 6.07271e-29 9.8386e-08)
(1.02425e-07 2.85569e-09 -2.61951e-30 1.0243e-07 -2.76098e-30 1.02427e-07)
(1.06557e-07 2.97881e-09 1.16272e-31 1.06563e-07 -1.00456e-28 1.0656e-07)
(1.10815e-07 3.10328e-09 3.02736e-31 1.10823e-07 -1.24134e-28 1.10819e-07)
(1.15169e-07 3.22782e-09 -2.61312e-32 1.15178e-07 7.86523e-31 1.15173e-07)
(1.19595e-07 3.35184e-09 -1.9735e-30 1.19605e-07 -1.7385e-28 1.196e-07)
(1.24117e-07 3.47645e-09 -3.66439e-29 1.24128e-07 2.38523e-28 1.24123e-07)
(1.28707e-07 3.60081e-09 1.01276e-30 1.28719e-07 -1.35102e-29 1.28713e-07)
(1.33378e-07 3.72599e-09 4.34204e-29 1.33391e-07 1.48112e-28 1.33385e-07)
(1.38084e-07 3.85041e-09 4.15524e-30 1.38097e-07 3.23919e-29 1.38091e-07)
(1.42858e-07 3.97589e-09 -9.52571e-30 1.42871e-07 -2.29628e-30 1.42865e-07)
(1.47676e-07 4.10178e-09 2.00558e-31 1.4769e-07 2.79066e-28 1.47683e-07)
(1.52567e-07 4.22973e-09 -3.81628e-30 1.52581e-07 -3.03943e-28 1.52574e-07)
(1.57513e-07 4.35926e-09 4.95614e-30 1.57527e-07 6.57003e-31 1.5752e-07)
(1.62513e-07 4.49069e-09 -5.50164e-31 1.62527e-07 3.81986e-32 1.6252e-07)
(1.6756e-07 4.62409e-09 1.44919e-37 1.67574e-07 -3.60943e-32 1.67567e-07)
(1.72681e-07 4.76079e-09 1.20365e-31 1.72695e-07 -2.09408e-28 1.72688e-07)
(1.77856e-07 4.90027e-09 -4.91144e-30 1.77869e-07 1.54248e-30 1.77863e-07)
(1.83073e-07 5.04233e-09 -5.78471e-29 1.83086e-07 -1.59377e-28 1.8308e-07)
(1.88335e-07 5.18726e-09 -5.67437e-29 1.88348e-07 1.34442e-28 1.88342e-07)
(1.93622e-07 5.33445e-09 1.07955e-29 1.93634e-07 -2.55883e-28 1.93628e-07)
(1.98942e-07 5.48449e-09 3.14893e-29 1.98953e-07 -5.8582e-29 1.98948e-07)
(2.04296e-07 5.63755e-09 2.66561e-29 2.04307e-07 -7.56844e-29 2.04302e-07)
(2.09679e-07 5.79352e-09 -3.61165e-29 2.09689e-07 7.95775e-29 2.09685e-07)
(2.15088e-07 5.95242e-09 4.56256e-30 2.15097e-07 3.16085e-28 2.15093e-07)
(2.20512e-07 6.11396e-09 -2.24389e-30 2.2052e-07 -3.69016e-29 2.20516e-07)
(2.25943e-07 6.27793e-09 -4.01356e-29 2.25951e-07 8.41067e-29 2.25947e-07)
(2.31379e-07 6.44425e-09 1.03581e-29 2.31386e-07 2.36485e-29 2.31383e-07)
(2.36788e-07 6.61166e-09 -5.22625e-30 2.36794e-07 -1.23935e-29 2.36791e-07)
(2.42178e-07 6.78055e-09 -1.82837e-29 2.42184e-07 2.41864e-29 2.42181e-07)
(2.47527e-07 6.95005e-09 2.50512e-30 2.47532e-07 -5.26685e-33 2.47529e-07)
(2.52828e-07 7.11995e-09 3.07526e-31 2.52832e-07 -8.79867e-29 2.5283e-07)
(2.58039e-07 7.28831e-09 1.48991e-30 2.58042e-07 -1.02443e-29 2.58041e-07)
(2.63175e-07 7.45592e-09 -1.06003e-30 2.63178e-07 1.04646e-29 2.63177e-07)
(2.68243e-07 7.62301e-09 9.82996e-30 2.68246e-07 -1.97301e-29 2.68245e-07)
(2.73196e-07 7.78751e-09 -1.91716e-31 2.73197e-07 4.62375e-31 2.73197e-07)
(2.78034e-07 7.94954e-09 -1.67582e-31 2.78035e-07 4.63078e-29 2.78035e-07)
(2.82724e-07 8.10749e-09 4.1141e-35 2.82724e-07 -2.88586e-30 2.82724e-07)
(2.87243e-07 8.26042e-09 -3.64822e-31 2.87243e-07 2.92764e-30 2.87243e-07)
(2.91578e-07 8.40769e-09 -2.98735e-30 2.91577e-07 2.7868e-30 2.91577e-07)
(2.95686e-07 8.54739e-09 3.76665e-31 2.95685e-07 -1.01069e-29 2.95686e-07)
(2.99545e-07 8.67847e-09 -3.95796e-32 2.99544e-07 -7.13906e-31 2.99545e-07)
(3.03122e-07 8.79945e-09 -2.29008e-31 3.0312e-07 1.16305e-29 3.03121e-07)
(3.06386e-07 8.90904e-09 3.12611e-31 3.06384e-07 1.11822e-31 3.06385e-07)
(3.09304e-07 9.00585e-09 -6.56557e-31 3.09302e-07 -2.73407e-30 3.09303e-07)
(3.11832e-07 9.08789e-09 -4.84721e-30 3.1183e-07 1.72743e-29 3.11831e-07)
(3.13926e-07 9.15348e-09 1.32137e-29 3.13924e-07 -2.2697e-29 3.13925e-07)
(3.15548e-07 9.20101e-09 -1.28954e-30 3.15546e-07 -8.77689e-29 3.15547e-07)
(3.16671e-07 9.22972e-09 -1.26536e-29 3.16669e-07 1.21809e-29 3.1667e-07)
(3.17246e-07 9.23798e-09 1.91626e-30 3.17245e-07 9.54073e-30 3.17245e-07)
(3.17054e-07 9.21667e-09 2.285e-29 3.17054e-07 -4.17261e-29 3.17054e-07)
(3.15932e-07 9.15945e-09 -2.6167e-33 3.15933e-07 1.04831e-30 3.15933e-07)
(3.13749e-07 9.06166e-09 -3.15568e-30 3.13751e-07 -1.39798e-28 3.1375e-07)
(3.10265e-07 8.91411e-09 1.16993e-30 3.1027e-07 1.27358e-28 3.10267e-07)
(3.05259e-07 8.70913e-09 -4.04815e-31 3.05266e-07 2.26874e-29 3.05262e-07)
(2.98491e-07 8.43877e-09 -3.69876e-30 2.985e-07 9.77828e-29 2.98495e-07)
(2.89705e-07 8.09528e-09 4.37084e-30 2.89717e-07 1.05057e-28 2.89711e-07)
(2.78782e-07 7.67795e-09 -9.56828e-32 2.78797e-07 1.06428e-28 2.78789e-07)
(2.65672e-07 7.1896e-09 -3.15033e-31 2.65688e-07 -2.16331e-29 2.6568e-07)
(2.50472e-07 6.6397e-09 3.49178e-32 2.5049e-07 9.53502e-30 2.50481e-07)
(2.33425e-07 6.04324e-09 -1.63357e-30 2.33443e-07 -1.27247e-28 2.33434e-07)
(2.14999e-07 5.42268e-09 -2.90395e-29 2.15017e-07 1.02069e-29 2.15008e-07)
(1.95801e-07 4.80278e-09 1.58249e-30 1.95817e-07 2.22878e-29 1.95809e-07)
(1.76508e-07 4.20728e-09 3.82165e-30 1.76522e-07 -8.92088e-30 1.76515e-07)
(1.57798e-07 3.65606e-09 -3.77514e-30 1.5781e-07 6.32565e-30 1.57804e-07)
(1.4024e-07 3.16197e-09 1.78012e-31 1.40249e-07 -1.13204e-29 1.40245e-07)
(1.24248e-07 2.73099e-09 1.37742e-32 1.24254e-07 4.67237e-30 1.24251e-07)
(1.1006e-07 2.36303e-09 -1.35205e-33 1.10063e-07 -4.25277e-33 1.10061e-07)
(9.77546e-08 2.05428e-09 -1.29737e-32 9.77561e-08 -1.94826e-29 9.77553e-08)
(8.72968e-08 1.79939e-09 -2.80558e-31 8.72966e-08 2.80902e-29 8.72967e-08)
(7.85954e-08 1.5933e-09 -1.72558e-29 7.8594e-08 -1.52378e-29 7.85947e-08)
(7.15426e-08 1.43188e-09 2.24599e-31 7.15402e-08 -1.29097e-29 7.15413e-08)
(6.59384e-08 1.30859e-09 5.52386e-32 6.59353e-08 7.21275e-31 6.59368e-08)
(6.15486e-08 1.21654e-09 1.32707e-29 6.15448e-08 -1.4584e-30 6.15467e-08)
(5.81887e-08 1.15043e-09 -1.26678e-29 5.81844e-08 3.9599e-32 5.81865e-08)
(5.56427e-08 1.10438e-09 1.21281e-29 5.5638e-08 3.24148e-30 5.56403e-08)
(5.37798e-08 1.075e-09 3.34455e-32 5.37747e-08 5.39751e-30 5.37772e-08)
(5.24807e-08 1.05935e-09 -1.61202e-33 5.24752e-08 -7.40589e-30 5.24779e-08)
(5.16664e-08 1.05558e-09 -1.29345e-31 5.16606e-08 -1.11333e-33 5.16635e-08)
(5.12761e-08 1.06231e-09 1.1693e-29 5.127e-08 1.66054e-30 5.1273e-08)
(5.1264e-08 1.07863e-09 1.2197e-29 5.12575e-08 3.32405e-30 5.12607e-08)
(5.15932e-08 1.10382e-09 5.29312e-32 5.15864e-08 -1.21075e-29 5.15897e-08)
(5.22424e-08 1.13757e-09 -3.11854e-31 5.22354e-08 -1.37241e-29 5.22389e-08)
(5.31894e-08 1.17953e-09 3.03013e-31 5.31822e-08 1.00382e-31 5.31857e-08)
(5.44265e-08 1.22979e-09 -3.96227e-32 5.44191e-08 -1.41312e-29 5.44227e-08)
(5.59467e-08 1.28827e-09 -1.10758e-31 5.59393e-08 -2.34865e-33 5.59429e-08)
(5.77286e-08 1.35463e-09 1.59102e-29 5.77211e-08 3.29893e-30 5.77248e-08)
(5.97898e-08 1.42951e-09 -3.30466e-31 5.97825e-08 -1.96182e-31 5.97861e-08)
(6.20753e-08 1.51091e-09 1.74914e-29 6.20684e-08 2.38348e-30 6.20718e-08)
(6.45767e-08 1.59972e-09 1.30556e-31 6.45697e-08 3.60317e-32 6.45731e-08)
(6.72814e-08 1.69628e-09 -7.68265e-32 6.72744e-08 2.61273e-32 6.7278e-08)
(2.8242e-07 1.27333e-08 -1.49186e-28 2.82364e-07 9.11373e-32 2.82391e-07)
(2.93627e-07 1.34473e-08 -3.62885e-30 2.93576e-07 -8.73224e-33 2.93603e-07)
(3.06615e-07 1.42895e-08 -9.10996e-29 3.06573e-07 6.69081e-29 3.06593e-07)
(3.20188e-07 1.51665e-08 -5.39484e-28 3.20158e-07 6.32726e-29 3.20174e-07)
(3.348e-07 1.61167e-08 2.24071e-28 3.34782e-07 5.5775e-29 3.34791e-07)
(3.50169e-07 1.71166e-08 -1.85305e-29 3.50168e-07 -5.28305e-28 3.50169e-07)
(3.65998e-07 1.81471e-08 2.03844e-31 3.66012e-07 6.92473e-31 3.66006e-07)
(3.82452e-07 1.92202e-08 2.17936e-29 3.82484e-07 -1.08406e-31 3.82469e-07)
(3.99384e-07 2.03254e-08 1.22487e-27 3.99435e-07 -1.75929e-27 3.99411e-07)
(4.16789e-07 2.14645e-08 -1.023e-28 4.16857e-07 -3.32209e-29 4.16824e-07)
(4.34681e-07 2.2639e-08 -1.54234e-27 4.34768e-07 -7.3382e-28 4.34726e-07)
(4.53187e-07 2.38623e-08 -1.61528e-27 4.53291e-07 8.48038e-28 4.53241e-07)
(4.72231e-07 2.51314e-08 -1.5028e-29 4.72352e-07 -2.18499e-27 4.72293e-07)
(4.91693e-07 2.64368e-08 -1.81909e-27 4.91829e-07 1.11026e-27 4.91763e-07)
(5.11641e-07 2.77878e-08 2.39613e-27 5.11792e-07 -8.72508e-28 5.11718e-07)
(5.31992e-07 2.91802e-08 -1.57778e-28 5.32157e-07 3.16232e-27 5.32077e-07)
(5.52737e-07 3.06187e-08 1.54451e-27 5.52914e-07 -2.15155e-27 5.52827e-07)
(5.73714e-07 3.20909e-08 1.57872e-28 5.739e-07 3.97356e-27 5.73809e-07)
(5.95026e-07 3.36099e-08 1.11928e-28 5.9522e-07 -1.02174e-28 5.95125e-07)
(6.16586e-07 3.51721e-08 2.10133e-27 6.16787e-07 -2.39225e-27 6.16689e-07)
(6.3846e-07 3.67863e-08 -2.47391e-27 6.38665e-07 3.01351e-27 6.38564e-07)
(6.60582e-07 3.84499e-08 1.55152e-28 6.6079e-07 -4.33869e-28 6.60688e-07)
(6.82934e-07 4.01639e-08 -1.67376e-31 6.83143e-07 3.72621e-28 6.8304e-07)
(7.05481e-07 4.19273e-08 -1.03537e-28 7.05689e-07 -3.8825e-28 7.05587e-07)
(7.28295e-07 4.37508e-08 -1.44023e-27 7.28501e-07 1.07324e-27 7.284e-07)
(7.51291e-07 4.56267e-08 3.93788e-29 7.51493e-07 4.26276e-28 7.51393e-07)
(7.74447e-07 4.75559e-08 -1.13608e-27 7.74644e-07 3.03067e-27 7.74547e-07)
(7.9773e-07 4.95362e-08 6.33846e-28 7.97921e-07 -2.46416e-27 7.97827e-07)
(8.21081e-07 5.1563e-08 -1.79722e-27 8.21264e-07 1.86436e-27 8.21173e-07)
(8.44519e-07 5.36389e-08 -1.78904e-28 8.44693e-07 3.47834e-27 8.44607e-07)
(8.6803e-07 5.57644e-08 -2.9094e-28 8.68195e-07 -5.83762e-27 8.68113e-07)
(8.91589e-07 5.79364e-08 6.21385e-28 8.91743e-07 1.16087e-27 8.91667e-07)
(9.15181e-07 6.01546e-08 1.9578e-27 9.15324e-07 -2.17552e-27 9.15253e-07)
(9.38761e-07 6.2414e-08 -3.40851e-28 9.38892e-07 -1.45053e-28 9.38827e-07)
(9.62293e-07 6.47109e-08 4.717e-28 9.62413e-07 -1.50021e-27 9.62353e-07)
(9.85747e-07 6.7041e-08 4.35845e-29 9.85853e-07 -3.33431e-28 9.858e-07)
(1.00903e-06 6.93946e-08 -5.10242e-29 1.00913e-06 6.15906e-29 1.00908e-06)
(1.03217e-06 7.17724e-08 1.29052e-28 1.03225e-06 -2.03649e-27 1.03221e-06)
(1.05507e-06 7.41616e-08 -7.25925e-29 1.05513e-06 -3.19178e-27 1.0551e-06)
(1.07767e-06 7.65555e-08 -6.14663e-28 1.07773e-06 2.19748e-27 1.0777e-06)
(1.09988e-06 7.89386e-08 -1.16314e-30 1.09992e-06 1.94425e-29 1.0999e-06)
(1.12171e-06 8.13124e-08 5.94328e-29 1.12174e-06 -1.97576e-29 1.12173e-06)
(1.14319e-06 8.36803e-08 -1.11964e-28 1.1432e-06 -2.62927e-28 1.14319e-06)
(1.16413e-06 8.60125e-08 4.39468e-29 1.16414e-06 -3.43816e-29 1.16413e-06)
(1.18452e-06 8.83081e-08 3.46955e-28 1.18452e-06 -3.53651e-28 1.18452e-06)
(1.20425e-06 9.05477e-08 -4.70651e-29 1.20423e-06 -3.51982e-30 1.20424e-06)
(1.22321e-06 9.27142e-08 2.34966e-29 1.22318e-06 8.32538e-28 1.22319e-06)
(1.24133e-06 9.47945e-08 1.13789e-29 1.24129e-06 8.47452e-29 1.24131e-06)
(1.25849e-06 9.67719e-08 -8.88624e-29 1.25844e-06 9.08489e-29 1.25847e-06)
(1.27461e-06 9.86305e-08 8.84426e-30 1.27455e-06 2.3209e-30 1.27458e-06)
(1.28956e-06 1.0035e-07 1.01738e-28 1.2895e-06 -1.04055e-28 1.28953e-06)
(1.3032e-06 1.0191e-07 -9.64978e-30 1.30313e-06 6.67783e-29 1.30317e-06)
(1.31542e-06 1.03292e-07 -8.41799e-30 1.31535e-06 -5.39206e-29 1.31539e-06)
(1.32604e-06 1.04471e-07 1.12229e-28 1.32597e-06 1.58988e-28 1.32601e-06)
(1.33488e-06 1.05421e-07 -2.43937e-28 1.3348e-06 -4.01426e-28 1.33484e-06)
(1.34175e-06 1.0612e-07 -8.48104e-28 1.34169e-06 7.93581e-28 1.34172e-06)
(1.34653e-06 1.06553e-07 1.53749e-28 1.34647e-06 1.79198e-28 1.3465e-06)
(1.34895e-06 1.06693e-07 4.46798e-29 1.3489e-06 4.32598e-29 1.34893e-06)
(1.34822e-06 1.06428e-07 -3.54501e-28 1.34818e-06 -1.66013e-27 1.3482e-06)
(1.34366e-06 1.05678e-07 -6.06809e-29 1.34365e-06 -1.36235e-27 1.34366e-06)
(1.33471e-06 1.04375e-07 -1.54733e-27 1.33473e-06 9.87468e-28 1.33472e-06)
(1.32043e-06 1.02416e-07 1.70537e-27 1.32049e-06 -8.6397e-28 1.32046e-06)
(1.2999e-06 9.97011e-08 2.22862e-28 1.3e-06 2.20056e-27 1.29995e-06)
(1.27216e-06 9.6142e-08 1.40067e-27 1.27231e-06 -9.34347e-28 1.27223e-06)
(1.23619e-06 9.16593e-08 1.43685e-27 1.23639e-06 -8.76648e-28 1.23629e-06)
(1.19142e-06 8.62526e-08 1.40059e-27 1.19166e-06 -5.13144e-28 1.19154e-06)
(1.13755e-06 7.99809e-08 -3.08366e-28 1.13783e-06 -2.05183e-28 1.13769e-06)
(1.07488e-06 7.29885e-08 4.41389e-29 1.07519e-06 1.63688e-28 1.07503e-06)
(1.00429e-06 6.54941e-08 -2.01561e-27 1.00461e-06 -1.49252e-27 1.00445e-06)
(9.27578e-07 5.77997e-08 1.77986e-28 9.27888e-07 2.23185e-27 9.27733e-07)
(8.47146e-07 5.02338e-08 2.9943e-28 8.47429e-07 1.10605e-28 8.47287e-07)
(7.65766e-07 4.30951e-08 -1.41022e-28 7.66009e-07 -1.30633e-28 7.65887e-07)
(6.8631e-07 3.66216e-08 1.10096e-28 6.86506e-07 1.53804e-28 6.86407e-07)
(6.11275e-07 3.09504e-08 -1.91363e-28 6.11421e-07 -1.05413e-28 6.11347e-07)
(5.42552e-07 2.61218e-08 8.59289e-29 5.42653e-07 6.73409e-29 5.42601e-07)
(4.81315e-07 2.21004e-08 -1.27042e-29 4.81376e-07 -5.50084e-29 4.81344e-07)
(4.28041e-07 1.88077e-08 -5.60627e-28 4.28069e-07 4.64228e-28 4.28054e-07)
(3.82641e-07 1.615e-08 9.91624e-28 3.82644e-07 -4.08338e-28 3.82642e-07)
(3.44716e-07 1.40403e-08 -7.47847e-28 3.447e-07 4.48632e-28 3.44707e-07)
(3.13543e-07 1.23914e-08 -7.60026e-28 3.13513e-07 8.69079e-29 3.13527e-07)
(2.88566e-07 1.11388e-08 7.47646e-29 2.88525e-07 1.13529e-28 2.88545e-07)
(2.68767e-07 1.01983e-08 -1.64386e-28 2.68718e-07 4.34136e-29 2.68742e-07)
(2.53375e-07 9.50837e-09 9.58348e-29 2.5332e-07 -2.01021e-30 2.53347e-07)
(2.41461e-07 9.00631e-09 -6.55723e-28 2.414e-07 -1.10023e-29 2.4143e-07)
(2.32465e-07 8.65552e-09 -5.82067e-28 2.32399e-07 3.93713e-29 2.32432e-07)
(2.25866e-07 8.42507e-09 5.63582e-28 2.25796e-07 4.50043e-29 2.25831e-07)
(2.21312e-07 8.29507e-09 3.52937e-30 2.21239e-07 -1.23533e-28 2.21275e-07)
(2.18534e-07 8.25113e-09 -5.66555e-29 2.18458e-07 -1.22851e-28 2.18496e-07)
(2.17324e-07 8.28301e-09 -1.19727e-28 2.17245e-07 1.88937e-29 2.17285e-07)
(2.17509e-07 8.38252e-09 5.3036e-28 2.17428e-07 9.11592e-29 2.17469e-07)
(2.18985e-07 8.54559e-09 5.852e-28 2.18902e-07 7.88835e-29 2.18943e-07)
(2.21638e-07 8.76756e-09 -3.67063e-30 2.21554e-07 8.85341e-31 2.21596e-07)
(2.25435e-07 9.04814e-09 6.12713e-28 2.2535e-07 2.81964e-28 2.25392e-07)
(2.30347e-07 9.38796e-09 6.45266e-30 2.30263e-07 -1.10911e-30 2.30305e-07)
(2.36298e-07 9.78362e-09 -1.1892e-28 2.36214e-07 2.86895e-29 2.36256e-07)
(2.43387e-07 1.02429e-08 8.68204e-30 2.43306e-07 3.24598e-31 2.43346e-07)
(2.51435e-07 1.07579e-08 -1.21047e-28 2.51359e-07 1.92616e-29 2.51397e-07)
(2.60503e-07 1.13398e-08 -3.48144e-30 2.60428e-07 1.49395e-32 2.60465e-07)
(2.70611e-07 1.19802e-08 -3.289e-30 2.70539e-07 -1.25718e-31 2.70576e-07)
(7.45293e-07 5.48856e-08 4.95542e-28 7.44986e-07 -2.81734e-31 7.45133e-07)
(7.72342e-07 5.79339e-08 1.68483e-29 7.72087e-07 -6.80424e-31 7.7222e-07)
(8.04952e-07 6.16991e-08 5.96517e-27 8.04746e-07 6.46411e-29 8.04847e-07)
(8.39984e-07 6.58348e-08 2.48433e-27 8.39863e-07 3.39957e-28 8.39927e-07)
(8.78509e-07 7.04801e-08 -1.37609e-28 8.78461e-07 1.32919e-27 8.78487e-07)
(9.19579e-07 7.55741e-08 -1.47516e-26 9.1963e-07 2.11671e-27 9.19607e-07)
(9.62199e-07 8.09966e-08 1.38783e-28 9.62355e-07 1.67827e-31 9.6228e-07)
(1.00684e-06 8.68441e-08 -3.94677e-28 1.00711e-06 2.55856e-30 1.00698e-06)
(1.05302e-06 9.30756e-08 -2.48714e-26 1.0534e-06 1.98854e-27 1.05321e-06)
(1.10064e-06 9.97036e-08 -2.56707e-28 1.10115e-06 6.04065e-27 1.1009e-06)
(1.14968e-06 1.06752e-07 -1.1395e-26 1.15032e-06 1.05695e-26 1.15e-06)
(1.20004e-06 1.14237e-07 7.93732e-27 1.20081e-06 5.46519e-27 1.20043e-06)
(1.25154e-06 1.22155e-07 -2.40593e-26 1.25244e-06 1.85265e-26 1.25199e-06)
(1.30427e-06 1.30541e-07 9.73627e-27 1.30529e-06 8.03797e-27 1.30478e-06)
(1.35831e-06 1.39446e-07 -9.53762e-27 1.35946e-06 1.37262e-27 1.35889e-06)
(1.41357e-06 1.48876e-07 2.82501e-26 1.41483e-06 -1.28571e-26 1.4142e-06)
(1.46977e-06 1.58807e-07 -1.11141e-26 1.47114e-06 -2.18774e-26 1.47045e-06)
(1.52656e-06 1.69174e-07 3.42525e-26 1.52803e-06 -2.05975e-26 1.52729e-06)
(1.58408e-06 1.80033e-07 -4.18201e-27 1.58563e-06 -2.06356e-26 1.58485e-06)
(1.64212e-06 1.91346e-07 -1.43085e-26 1.64375e-06 -1.57191e-26 1.64293e-06)
(1.70068e-06 2.03129e-07 1.93406e-26 1.70236e-06 -7.40709e-27 1.70151e-06)
(1.75956e-06 2.15349e-07 -3.30714e-27 1.76129e-06 -1.31749e-28 1.76042e-06)
(1.81868e-06 2.27989e-07 2.30542e-27 1.82044e-06 2.98387e-26 1.81955e-06)
(1.87791e-06 2.41015e-07 -2.19358e-27 1.8797e-06 3.18532e-26 1.87879e-06)
(1.93729e-06 2.54439e-07 6.51296e-27 1.93908e-06 1.08386e-26 1.93817e-06)
(1.99664e-06 2.68211e-07 3.03763e-27 1.99842e-06 1.86973e-28 1.99752e-06)
(2.05587e-06 2.82298e-07 9.38465e-27 2.05762e-06 1.26119e-26 2.05673e-06)
(2.11489e-06 2.96669e-07 -2.72955e-26 2.1166e-06 -3.26772e-26 2.11573e-06)
(2.17356e-06 3.11277e-07 1.40053e-26 2.17523e-06 1.47999e-26 2.17438e-06)
(2.23187e-06 3.26085e-07 2.52675e-26 2.23347e-06 -1.35888e-26 2.23265e-06)
(2.28979e-06 3.41089e-07 -3.45984e-26 2.29131e-06 2.88579e-26 2.29053e-06)
(2.34724e-06 3.56244e-07 2.95937e-27 2.34868e-06 -7.50353e-27 2.34794e-06)
(2.40418e-06 3.71514e-07 -1.27301e-26 2.40552e-06 -2.48422e-26 2.40483e-06)
(2.46054e-06 3.86874e-07 3.29878e-31 2.46178e-06 4.38897e-27 2.46114e-06)
(2.51622e-06 4.02265e-07 -1.83797e-26 2.51735e-06 5.66787e-27 2.51677e-06)
(2.57116e-06 4.17656e-07 1.71838e-28 2.57218e-06 2.78445e-26 2.57165e-06)
(2.62524e-06 4.33001e-07 -1.02438e-27 2.62614e-06 7.58602e-28 2.62567e-06)
(2.67853e-06 4.48282e-07 -1.94992e-26 2.67931e-06 1.25885e-26 2.6789e-06)
(2.73081e-06 4.63438e-07 -2.00394e-26 2.73146e-06 1.28864e-26 2.73112e-06)
(2.782e-06 4.78393e-07 1.64321e-26 2.78253e-06 8.66748e-28 2.78225e-06)
(2.83198e-06 4.93106e-07 -4.9094e-28 2.83237e-06 -1.37395e-28 2.83216e-06)
(2.88072e-06 5.07558e-07 -6.85058e-28 2.88098e-06 1.21112e-28 2.88083e-06)
(2.92813e-06 5.21703e-07 4.63848e-29 2.92827e-06 6.68047e-28 2.92818e-06)
(2.97413e-06 5.35489e-07 -1.81363e-28 2.97414e-06 3.80596e-31 2.97412e-06)
(3.0187e-06 5.48895e-07 -2.31897e-27 3.01859e-06 -3.8019e-27 3.01863e-06)
(3.06167e-06 5.61843e-07 5.57781e-28 3.06144e-06 2.20684e-28 3.06154e-06)
(3.10289e-06 5.7428e-07 6.5273e-27 3.10254e-06 -4.01737e-27 3.1027e-06)
(3.14223e-06 5.86159e-07 -3.37054e-28 3.14177e-06 -3.3775e-28 3.14199e-06)
(3.17953e-06 5.97396e-07 6.32813e-28 3.17896e-06 3.06151e-27 3.17923e-06)
(3.21461e-06 6.07938e-07 -8.42739e-29 3.21395e-06 -9.62792e-30 3.21427e-06)
(3.24729e-06 6.1771e-07 -8.15833e-28 3.24655e-06 -8.6539e-28 3.24691e-06)
(3.27732e-06 6.26623e-07 6.29337e-28 3.2765e-06 1.73204e-28 3.27691e-06)
(3.30451e-06 6.34611e-07 -4.34674e-28 3.30362e-06 4.29795e-28 3.30406e-06)
(3.32849e-06 6.41545e-07 -1.94486e-29 3.32756e-06 -1.99924e-27 3.32802e-06)
(3.34893e-06 6.47335e-07 -3.98562e-28 3.34797e-06 -5.86565e-27 3.34845e-06)
(3.36544e-06 6.51856e-07 7.14184e-27 3.36448e-06 7.50125e-27 3.36496e-06)
(3.37757e-06 6.54994e-07 -1.24572e-27 3.37665e-06 -2.18647e-27 3.37711e-06)
(3.38476e-06 6.56595e-07 -4.93952e-28 3.38391e-06 -7.50514e-28 3.38434e-06)
(3.38565e-06 6.56209e-07 -1.37792e-26 3.38491e-06 1.08198e-26 3.38529e-06)
(3.37895e-06 6.53432e-07 -1.37309e-26 3.37838e-06 5.87737e-27 3.37867e-06)
(3.36336e-06 6.47864e-07 9.31243e-27 3.36301e-06 1.06027e-26 3.36319e-06)
(3.33703e-06 6.38951e-07 -8.51695e-27 3.33695e-06 -1.15026e-26 3.337e-06)
(3.29793e-06 6.26072e-07 2.79321e-26 3.29819e-06 -1.03338e-26 3.29807e-06)
(3.2439e-06 6.08614e-07 -1.28851e-26 3.24454e-06 -7.06713e-27 3.24424e-06)
(3.17255e-06 5.85892e-07 -9.37953e-27 3.1736e-06 -9.81406e-27 3.1731e-06)
(3.08195e-06 5.5747e-07 -6.02617e-27 3.0834e-06 -9.52103e-27 3.0827e-06)
(2.97056e-06 5.23161e-07 -2.17679e-27 2.97238e-06 1.91097e-26 2.9715e-06)
(2.83775e-06 4.83155e-07 1.69435e-27 2.83984e-06 -1.50659e-27 2.83883e-06)
(2.68407e-06 4.38226e-07 -2.70983e-26 2.68633e-06 2.0206e-26 2.68524e-06)
(2.51194e-06 3.89805e-07 3.54718e-26 2.5142e-06 -8.46148e-27 2.51311e-06)
(2.32554e-06 3.39912e-07 7.67562e-28 2.32766e-06 -1.57839e-27 2.32664e-06)
(2.13058e-06 2.90846e-07 -1.29845e-27 2.13243e-06 -2.54528e-28 2.13154e-06)
(1.93382e-06 2.44834e-07 2.15174e-27 1.93533e-06 -3.68048e-28 1.93461e-06)
(1.74212e-06 2.03609e-07 -1.81831e-27 1.74326e-06 -7.35376e-27 1.74271e-06)
(1.56157e-06 1.68173e-07 1.46906e-27 1.56234e-06 1.44817e-28 1.56197e-06)
(1.3968e-06 1.38783e-07 -1.02171e-27 1.39727e-06 -2.32467e-29 1.39705e-06)
(1.2506e-06 1.15093e-07 1.33769e-26 1.25082e-06 -2.62321e-28 1.25072e-06)
(1.12394e-06 9.63948e-08 -1.32306e-26 1.12397e-06 -5.11814e-28 1.12396e-06)
(1.01649e-06 8.18806e-08 1.73039e-26 1.01637e-06 -5.44485e-28 1.01643e-06)
(9.26727e-07 7.07217e-08 3.9743e-27 9.26512e-07 6.07348e-28 9.2662e-07)
(8.52918e-07 6.22257e-08 1.00606e-26 8.52629e-07 -5.70451e-28 8.52773e-07)
(7.92765e-07 5.57701e-08 9.0373e-27 7.92422e-07 -1.34776e-28 7.92593e-07)
(7.45012e-07 5.0975e-08 -8.3597e-27 7.44629e-07 3.19836e-29 7.4482e-07)
(7.07048e-07 4.73752e-08 2.80953e-27 7.06633e-07 -1.39611e-28 7.0684e-07)
(6.77387e-07 4.47121e-08 -4.73218e-27 6.76947e-07 -5.30904e-28 6.77167e-07)
(6.54519e-07 4.27683e-08 -2.62701e-27 6.54059e-07 -1.20719e-28 6.54289e-07)
(6.37422e-07 4.14032e-08 6.9372e-27 6.36946e-07 5.29357e-28 6.37183e-07)
(6.25305e-07 4.05155e-08 6.93605e-27 6.24817e-07 1.09566e-27 6.25061e-07)
(6.1755e-07 4.00339e-08 2.49725e-28 6.17052e-07 -8.00532e-28 6.17301e-07)
(6.13619e-07 3.9899e-08 -2.89145e-27 6.13114e-07 4.35694e-28 6.13367e-07)
(6.13171e-07 4.00777e-08 -2.41945e-27 6.12663e-07 1.28783e-27 6.12917e-07)
(6.15837e-07 4.05362e-08 4.61201e-29 6.1533e-07 -8.17497e-28 6.15583e-07)
(6.21508e-07 4.12659e-08 -1.01381e-26 6.21006e-07 -2.41184e-28 6.21257e-07)
(6.30112e-07 4.22699e-08 -2.42693e-29 6.2962e-07 -3.16458e-31 6.29865e-07)