/*--------------------------------*- C++ -*----------------------------------*\
| =========                 |                                                 |
| \\      /  F ield         | OpenFOAM: The Open Source CFD Toolbox           |
|  \\    /   O peration     | Version:  2.1.1                                 |
|   \\  /    A nd           | Web:      www.OpenFOAM.org                      |
|    \\/     M anipulation  |                                                 |
\*---------------------------------------------------------------------------*/
FoamFile
{
    version     2.0;
    format      ascii;
    class       volSymmTensorField;
    location    "0";
    object      TauDNS;
}
// * * * * * * * * * * * * * * * * * * * * * * * * * * * * * * * * * * * * * //

dimensions      [0 2 -2 0 0 0 0];

internalField   nonuniform List<symmTensor> 
14751
(
(9.014391774613624182e-07 1.808909059140987143e-08 0.000000000000000000e+00 2.127254482978021609e-09 0.000000000000000000e+00 2.644919592681291997e-07)
(9.016582421762829260e-07 1.837431912747539673e-08 0.000000000000000000e+00 2.169882464293473686e-09 0.000000000000000000e+00 2.685056361945959320e-07)
(9.020984607663712008e-07 1.866721545040143176e-08 0.000000000000000000e+00 2.212430028390178635e-09 0.000000000000000000e+00 2.726565702119237849e-07)
(9.019523979181834101e-07 1.893553226279059016e-08 0.000000000000000000e+00 2.242827911242706722e-09 0.000000000000000000e+00 2.764476200212582634e-07)
(9.013882473466556391e-07 1.916060177034741546e-08 0.000000000000000000e+00 2.268080999357503380e-09 0.000000000000000000e+00 2.799253315963002329e-07)
(9.010003200397667451e-07 1.939600173595136648e-08 0.000000000000000000e+00 2.301730737333309561e-09 0.000000000000000000e+00 2.833804972819689996e-07)
(9.014029638096386791e-07 1.968335457210097026e-08 0.000000000000000000e+00 2.355272280412562636e-09 0.000000000000000000e+00 2.871340816705795051e-07)
(9.023115996683874134e-07 1.995687183262365607e-08 0.000000000000000000e+00 2.416451980811268548e-09 0.000000000000000000e+00 2.908864834617427860e-07)
(9.033777880126075591e-07 2.023346849247420032e-08 0.000000000000000000e+00 2.477167284144466367e-09 0.000000000000000000e+00 2.945858385503402117e-07)
(9.046856255142669962e-07 2.048569310935641730e-08 0.000000000000000000e+00 2.522762836863450560e-09 0.000000000000000000e+00 2.983163281877513193e-07)
(9.054346377636514618e-07 2.077477272831627280e-08 0.000000000000000000e+00 2.578541010508392051e-09 0.000000000000000000e+00 3.019166531220689635e-07)
(9.059404975222325793e-07 2.096972749836746244e-08 0.000000000000000000e+00 2.634012884932737411e-09 0.000000000000000000e+00 3.049240778879540347e-07)
(9.069755602238797283e-07 2.111928256895273471e-08 0.000000000000000000e+00 2.688102394468178154e-09 0.000000000000000000e+00 3.078799042489638916e-07)
(9.081205374385194362e-07 2.133121407143740513e-08 0.000000000000000000e+00 2.757736273876944827e-09 0.000000000000000000e+00 3.110986315286839091e-07)
(9.096406000074432398e-07 2.150199853987042391e-08 0.000000000000000000e+00 2.824298294845940725e-09 0.000000000000000000e+00 3.144156146063690797e-07)
(9.122016295852358243e-07 2.171515566585765160e-08 0.000000000000000000e+00 2.892768002717255135e-09 0.000000000000000000e+00 3.178919736555143046e-07)
(9.151546937962704905e-07 2.190571307020985516e-08 0.000000000000000000e+00 2.958523559556693616e-09 0.000000000000000000e+00 3.210317771673025041e-07)
(9.182789063623531674e-07 2.214368941158310926e-08 0.000000000000000000e+00 3.039259154727260940e-09 0.000000000000000000e+00 3.236766159269495002e-07)
(9.214002885619724440e-07 2.239333368154651663e-08 0.000000000000000000e+00 3.121414358397231542e-09 0.000000000000000000e+00 3.261186936372190563e-07)
(9.236312463421684745e-07 2.256038527644727308e-08 0.000000000000000000e+00 3.189740108294322623e-09 0.000000000000000000e+00 3.286670216539545242e-07)
(9.261537524151529462e-07 2.265747337374691957e-08 0.000000000000000000e+00 3.262045230647251427e-09 0.000000000000000000e+00 3.312302837753010651e-07)
(9.304241207778274496e-07 2.272241014572313291e-08 0.000000000000000000e+00 3.344232968118087939e-09 0.000000000000000000e+00 3.340177955305493215e-07)
(9.357250343254921702e-07 2.290552353595245779e-08 0.000000000000000000e+00 3.439386504584413803e-09 0.000000000000000000e+00 3.375287156209704709e-07)
(9.419113428623137320e-07 2.313318007081304351e-08 0.000000000000000000e+00 3.516721501994181800e-09 0.000000000000000000e+00 3.411978395906136350e-07)
(9.483418584314155823e-07 2.331563038849402664e-08 0.000000000000000000e+00 3.599801542752899009e-09 0.000000000000000000e+00 3.446897743432307458e-07)
(9.557003532137118371e-07 2.347972914278807826e-08 0.000000000000000000e+00 3.686833077888415772e-09 0.000000000000000000e+00 3.477449623419138117e-07)
(9.638385395539598926e-07 2.369535909249516740e-08 0.000000000000000000e+00 3.779975945408084219e-09 0.000000000000000000e+00 3.504148733685771431e-07)
(9.725734710066303863e-07 2.395553900679278224e-08 0.000000000000000000e+00 3.880254091649101118e-09 0.000000000000000000e+00 3.536899436986955523e-07)
(9.810054801890488430e-07 2.425895134040415821e-08 0.000000000000000000e+00 3.983243018565954402e-09 0.000000000000000000e+00 3.574968163314237255e-07)
(9.873648266726053102e-07 2.442456645009905681e-08 0.000000000000000000e+00 4.064920140482147721e-09 0.000000000000000000e+00 3.609971740690909248e-07)
(9.931811143783505275e-07 2.455459182941312588e-08 0.000000000000000000e+00 4.130808389887313382e-09 0.000000000000000000e+00 3.645382522321614267e-07)
(1.000014844671461243e-06 2.460551785883418779e-08 0.000000000000000000e+00 4.197906441595543612e-09 0.000000000000000000e+00 3.678189953622286914e-07)
(1.007626364018181585e-06 2.478392562322728939e-08 0.000000000000000000e+00 4.292760404823245168e-09 0.000000000000000000e+00 3.714519821435029429e-07)
(1.016217832520833360e-06 2.494236640630218678e-08 0.000000000000000000e+00 4.369490670025355423e-09 0.000000000000000000e+00 3.746277301400890698e-07)
(1.025178168931941380e-06 2.507610909901654748e-08 0.000000000000000000e+00 4.451122880750209221e-09 0.000000000000000000e+00 3.770458159389043815e-07)
(1.033997071193961476e-06 2.519180411060558731e-08 0.000000000000000000e+00 4.530510684513599554e-09 0.000000000000000000e+00 3.790534396951119539e-07)
(1.042600798556532954e-06 2.534846447710971933e-08 0.000000000000000000e+00 4.591579110808464353e-09 0.000000000000000000e+00 3.806437811165053618e-07)
(1.049916804889214627e-06 2.549658398354251017e-08 0.000000000000000000e+00 4.656337672897321932e-09 0.000000000000000000e+00 3.816702172040588087e-07)
(1.056221742489542305e-06 2.555604673065708103e-08 0.000000000000000000e+00 4.702859623704109401e-09 0.000000000000000000e+00 3.820247640573407942e-07)
(1.061735839372122138e-06 2.555399266435296356e-08 0.000000000000000000e+00 4.745546558007980335e-09 0.000000000000000000e+00 3.825740410505981599e-07)
(1.067531190628100136e-06 2.549937907488994218e-08 0.000000000000000000e+00 4.797458000863466006e-09 0.000000000000000000e+00 3.832460515756658942e-07)
(1.075421011658096735e-06 2.544894072175358393e-08 0.000000000000000000e+00 4.840184590602776546e-09 0.000000000000000000e+00 3.849469674987023195e-07)
(1.083319898192792788e-06 2.555443610855834160e-08 0.000000000000000000e+00 4.873290599492114430e-09 0.000000000000000000e+00 3.858618856608016341e-07)
(1.088400264253807847e-06 2.553940190435401933e-08 0.000000000000000000e+00 4.908374115794952732e-09 0.000000000000000000e+00 3.855017929690102376e-07)
(1.092603163075268475e-06 2.554163338039397019e-08 0.000000000000000000e+00 4.913252721086678632e-09 0.000000000000000000e+00 3.836485738267973659e-07)
(1.093918892815720199e-06 2.526521655889016032e-08 0.000000000000000000e+00 4.871418690198668799e-09 0.000000000000000000e+00 3.811294807894654567e-07)
(1.095773034370111859e-06 2.501320251079239460e-08 0.000000000000000000e+00 4.865783484693849121e-09 0.000000000000000000e+00 3.788475192022076567e-07)
(1.097587171874941020e-06 2.495527527561083858e-08 0.000000000000000000e+00 4.874067978032938034e-09 0.000000000000000000e+00 3.764221380104202572e-07)
(1.096916605849261303e-06 2.469425135551199000e-08 0.000000000000000000e+00 4.851617014652486827e-09 0.000000000000000000e+00 3.732780750033764022e-07)
(1.093660622611064703e-06 2.433402875607479435e-08 0.000000000000000000e+00 4.800088320652315125e-09 0.000000000000000000e+00 3.703438593423834646e-07)
(1.090501340102864073e-06 2.394891891220755186e-08 0.000000000000000000e+00 4.764275359628274568e-09 0.000000000000000000e+00 3.673764979336381981e-07)
(1.089166247913874590e-06 2.369865614102667662e-08 0.000000000000000000e+00 4.693284443393850997e-09 0.000000000000000000e+00 3.628356470777894650e-07)
(1.086029582876890022e-06 2.330438387011059921e-08 0.000000000000000000e+00 4.602951119372120840e-09 0.000000000000000000e+00 3.569044478046821050e-07)
(1.081184349586001107e-06 2.279473741914464758e-08 0.000000000000000000e+00 4.501644556008728044e-09 0.000000000000000000e+00 3.500969182105799960e-07)
(1.077094956264665764e-06 2.224842024621526908e-08 0.000000000000000000e+00 4.408696593054727745e-09 0.000000000000000000e+00 3.429585130328491563e-07)
(1.073797441385097099e-06 2.189010920431282827e-08 0.000000000000000000e+00 4.317931315979874394e-09 0.000000000000000000e+00 3.371930709418013589e-07)
(1.068983032234754038e-06 2.149896219192110629e-08 0.000000000000000000e+00 4.210328828776030191e-09 0.000000000000000000e+00 3.316891035571699110e-07)
(1.063099452257257625e-06 2.110437642688307125e-08 0.000000000000000000e+00 4.128291214887087938e-09 0.000000000000000000e+00 3.262446616264628764e-07)
(1.058504707863765167e-06 2.067755746045882566e-08 0.000000000000000000e+00 4.049493516711796807e-09 0.000000000000000000e+00 3.206882000023951216e-07)
(1.053845527855481522e-06 2.030129511525054767e-08 0.000000000000000000e+00 3.956354254517156813e-09 0.000000000000000000e+00 3.153759181831326771e-07)
(1.048154523221676220e-06 2.000403734012710919e-08 0.000000000000000000e+00 3.854403821122859119e-09 0.000000000000000000e+00 3.095321730609260087e-07)
(1.039746862874199546e-06 1.956366597914315545e-08 0.000000000000000000e+00 3.732540881130880603e-09 0.000000000000000000e+00 3.031286602436273203e-07)
(1.031158976565046383e-06 1.908128263738630517e-08 0.000000000000000000e+00 3.609631730532284238e-09 0.000000000000000000e+00 2.974209385762998168e-07)
(1.023845196703648153e-06 1.873008772952101012e-08 0.000000000000000000e+00 3.504854851947992811e-09 0.000000000000000000e+00 2.915928289869746691e-07)
(1.016574274766914002e-06 1.833718451947832492e-08 0.000000000000000000e+00 3.379896793594712136e-09 0.000000000000000000e+00 2.853604378724823757e-07)
(1.010921768561527903e-06 1.803731673437600963e-08 0.000000000000000000e+00 3.276797574887612778e-09 0.000000000000000000e+00 2.800863616767736571e-07)
(1.004978917230209558e-06 1.778418872933165369e-08 0.000000000000000000e+00 3.192481591436936772e-09 0.000000000000000000e+00 2.748769513566131407e-07)
(9.974440349181483897e-07 1.753834101403215373e-08 0.000000000000000000e+00 3.096561277680263604e-09 0.000000000000000000e+00 2.699879841478811961e-07)
(9.879937615010992182e-07 1.713495373787520500e-08 0.000000000000000000e+00 2.999591042544383638e-09 0.000000000000000000e+00 2.646155901264677235e-07)
(9.796724626055878676e-07 1.672571088137344358e-08 0.000000000000000000e+00 2.898037906976738870e-09 0.000000000000000000e+00 2.595671815817917058e-07)
(9.725960423341266013e-07 1.641107045144432085e-08 0.000000000000000000e+00 2.777925020254001406e-09 0.000000000000000000e+00 2.554490452502008844e-07)
(9.649866521332354689e-07 1.614108068449130947e-08 0.000000000000000000e+00 2.694569554822767780e-09 0.000000000000000000e+00 2.519597296806463055e-07)
(9.576351766830935999e-07 1.592390367988431573e-08 0.000000000000000000e+00 2.618634692479504584e-09 0.000000000000000000e+00 2.483755384520383676e-07)
(9.499150840947487679e-07 1.567417806905613360e-08 0.000000000000000000e+00 2.528181832757446209e-09 0.000000000000000000e+00 2.444875802533387107e-07)
(9.430900457511985948e-07 1.552600092738160212e-08 0.000000000000000000e+00 2.455787003569212100e-09 0.000000000000000000e+00 2.412249677426950621e-07)
(9.359718388476753487e-07 1.540216563909576626e-08 0.000000000000000000e+00 2.402162518356565792e-09 0.000000000000000000e+00 2.381521476621408530e-07)
(9.291669782394677527e-07 1.530728525546706344e-08 0.000000000000000000e+00 2.357492681053080577e-09 0.000000000000000000e+00 2.361042933238909054e-07)
(9.219172623833230200e-07 1.522181486075562796e-08 0.000000000000000000e+00 2.299577509027953082e-09 0.000000000000000000e+00 2.342570896476527567e-07)
(9.145922329654992757e-07 1.505703490173326430e-08 0.000000000000000000e+00 2.226112528245043871e-09 0.000000000000000000e+00 2.323668124363671398e-07)
(9.077971296535389417e-07 1.493894581126379274e-08 0.000000000000000000e+00 2.177142975223001594e-09 0.000000000000000000e+00 2.306171627063158783e-07)
(9.020859096325406297e-07 1.480704084796171824e-08 0.000000000000000000e+00 2.117650340299884288e-09 0.000000000000000000e+00 2.292387921348030093e-07)
(8.976443657005368932e-07 1.476386544114635835e-08 0.000000000000000000e+00 2.077393260920689290e-09 0.000000000000000000e+00 2.286383573469929069e-07)
(8.936426503445023068e-07 1.469681167958779013e-08 0.000000000000000000e+00 2.047878154625829312e-09 0.000000000000000000e+00 2.282951938897291575e-07)
(8.912910456782379831e-07 1.465191308506353503e-08 0.000000000000000000e+00 2.014132501839692616e-09 0.000000000000000000e+00 2.280273528257721960e-07)
(8.902243679644600356e-07 1.468402614703128044e-08 0.000000000000000000e+00 1.992138434683204163e-09 0.000000000000000000e+00 2.281914310155933572e-07)
(8.901777274668215172e-07 1.473585093198325687e-08 0.000000000000000000e+00 1.972250678557473338e-09 0.000000000000000000e+00 2.287588233431430363e-07)
(8.904661374676831754e-07 1.489345171457780079e-08 0.000000000000000000e+00 1.955621055777302614e-09 0.000000000000000000e+00 2.298008605082411585e-07)
(8.905864930456193084e-07 1.504240105116385595e-08 0.000000000000000000e+00 1.929646537459491914e-09 0.000000000000000000e+00 2.311560397756672629e-07)
(8.906283475143986761e-07 1.516012422023097297e-08 0.000000000000000000e+00 1.923179671929053378e-09 0.000000000000000000e+00 2.326742082259280356e-07)
(8.920732482007514108e-07 1.533008024697021499e-08 0.000000000000000000e+00 1.930813401824298578e-09 0.000000000000000000e+00 2.341872128243903331e-07)
(8.944602267856848949e-07 1.557477923413253720e-08 0.000000000000000000e+00 1.930779874065801435e-09 0.000000000000000000e+00 2.362096727246410773e-07)
(8.961342824861317297e-07 1.583633696913799909e-08 0.000000000000000000e+00 1.923619734763635807e-09 0.000000000000000000e+00 2.384810751920485583e-07)
(8.972742613475260629e-07 1.610865696995278538e-08 0.000000000000000000e+00 1.934086458940325218e-09 0.000000000000000000e+00 2.409507040392055119e-07)
(8.977933734437213867e-07 1.635440780068922974e-08 0.000000000000000000e+00 1.945167918198033826e-09 0.000000000000000000e+00 2.435934219299140571e-07)
(8.987539501825900282e-07 1.661854461193159250e-08 0.000000000000000000e+00 1.976002349461003038e-09 0.000000000000000000e+00 2.461781388800888516e-07)
(8.999810107755194383e-07 1.691949365887101264e-08 0.000000000000000000e+00 1.998741895240985352e-09 0.000000000000000000e+00 2.493009270928780792e-07)
(9.007799508515236254e-07 1.721819693268388193e-08 0.000000000000000000e+00 2.019197549955090153e-09 0.000000000000000000e+00 2.529153156326209725e-07)
(9.009288351235437959e-07 1.751665265801980711e-08 0.000000000000000000e+00 2.054053482741800722e-09 0.000000000000000000e+00 2.567435774092361468e-07)
(9.010607636764269706e-07 1.779465117748735932e-08 0.000000000000000000e+00 2.087522344555556112e-09 0.000000000000000000e+00 2.605618289213791588e-07)
(2.744882295369510089e-06 5.508128085083626939e-08 0.000000000000000000e+00 6.477489900667278021e-09 0.000000000000000000e+00 8.053780159713540130e-07)
(2.745549497888156919e-06 5.594996071461787667e-08 0.000000000000000000e+00 6.607318788016329980e-09 0.000000000000000000e+00 8.176018762698432480e-07)
(2.746890196357891668e-06 5.684195137203062940e-08 0.000000000000000000e+00 6.736883504226427521e-09 0.000000000000000000e+00 8.302433129209613462e-07)
(2.750954089707285861e-06 5.775365061814730370e-08 0.000000000000000000e+00 6.840632277831959207e-09 0.000000000000000000e+00 8.431705253320286014e-07)
(2.753739980504529002e-06 5.853606867728248628e-08 0.000000000000000000e+00 6.929058438568501224e-09 0.000000000000000000e+00 8.551774193040170851e-07)
(2.757061061118003896e-06 5.935206180587005499e-08 0.000000000000000000e+00 7.043340560332644698e-09 0.000000000000000000e+00 8.671495361554932696e-07)
(2.762801051461785996e-06 6.033003500175032028e-08 0.000000000000000000e+00 7.219024978122635030e-09 0.000000000000000000e+00 8.800722426451288256e-07)
(2.770098829864846735e-06 6.126800355723213943e-08 0.000000000000000000e+00 7.418612294814143967e-09 0.000000000000000000e+00 8.930285652591032816e-07)
(2.777888877944237500e-06 6.221860533339454301e-08 0.000000000000000000e+00 7.617422610902492295e-09 0.000000000000000000e+00 9.058596535797387290e-07)
(2.786434163520600489e-06 6.309675759696931740e-08 0.000000000000000000e+00 7.770213384484486852e-09 0.000000000000000000e+00 9.188226677413577036e-07)
(2.793266999980607757e-06 6.409048972157658186e-08 0.000000000000000000e+00 7.954923783833146639e-09 0.000000000000000000e+00 9.314205920193224513e-07)
(2.799358134927004930e-06 6.479723313599081473e-08 0.000000000000000000e+00 8.139296150090957007e-09 0.000000000000000000e+00 9.422251556955253697e-07)
(2.807093081907076973e-06 6.536438464742827551e-08 0.000000000000000000e+00 8.319840916327951338e-09 0.000000000000000000e+00 9.528966606710105774e-07)
(2.815177304508445080e-06 6.612777519793927745e-08 0.000000000000000000e+00 8.549215220391017974e-09 0.000000000000000000e+00 9.644170312568031108e-07)
(2.824439912398823296e-06 6.676380867128857257e-08 0.000000000000000000e+00 8.769625592580707601e-09 0.000000000000000000e+00 9.762697544981191658e-07)
(2.836955718612117880e-06 6.753426415837055008e-08 0.000000000000000000e+00 8.996649132044189528e-09 0.000000000000000000e+00 9.886534252004807197e-07)
(2.850716352102005320e-06 6.823743996361190015e-08 0.000000000000000000e+00 9.216074961108006125e-09 0.000000000000000000e+00 1.000023986486973996e-06)
(2.860448889155947621e-06 6.897784805500730081e-08 0.000000000000000000e+00 9.467525848667284027e-09 0.000000000000000000e+00 1.008259311603572430e-06)
(2.874775871271474293e-06 6.986820689305384225e-08 0.000000000000000000e+00 9.739046510662207869e-09 0.000000000000000000e+00 1.017497707365051976e-06)
(2.886352916896557162e-06 7.050110773513311352e-08 0.000000000000000000e+00 9.968066160571989341e-09 0.000000000000000000e+00 1.027090149820467273e-06)
(2.898870153781574601e-06 7.091761841644224386e-08 0.000000000000000000e+00 1.021036175985240975e-08 0.000000000000000000e+00 1.036756670832802494e-06)
(2.916889679881847182e-06 7.123535066170367498e-08 0.000000000000000000e+00 1.048440003248361086e-08 0.000000000000000000e+00 1.047153137105491866e-06)
(2.933512799469272244e-06 7.180892891444198139e-08 0.000000000000000000e+00 1.078265797246628565e-08 0.000000000000000000e+00 1.058160745833750726e-06)
(2.957617905736899507e-06 7.263919054369350206e-08 0.000000000000000000e+00 1.104274992132305326e-08 0.000000000000000000e+00 1.071371864744211647e-06)
(2.982548703674280567e-06 7.332760517821426605e-08 0.000000000000000000e+00 1.132152376878905850e-08 0.000000000000000000e+00 1.084055058310344561e-06)
(3.010472159129421268e-06 7.396185652082379520e-08 0.000000000000000000e+00 1.161373322802532910e-08 0.000000000000000000e+00 1.095403291663808394e-06)
(3.036104651416359964e-06 7.464093300436400138e-08 0.000000000000000000e+00 1.190709148397821272e-08 0.000000000000000000e+00 1.103811693845249396e-06)
(3.068483163624799398e-06 7.557996679512995940e-08 0.000000000000000000e+00 1.224232467558265135e-08 0.000000000000000000e+00 1.115897163297930669e-06)
(3.095083116966483624e-06 7.653753223070807435e-08 0.000000000000000000e+00 1.256730317408720081e-08 0.000000000000000000e+00 1.127908502428847234e-06)
(3.120078967830604355e-06 7.718167876436380790e-08 0.000000000000000000e+00 1.284520670857751711e-08 0.000000000000000000e+00 1.140754471430373271e-06)
(3.138458341465905467e-06 7.759267755231814818e-08 0.000000000000000000e+00 1.305343995900053068e-08 0.000000000000000000e+00 1.151944448719040994e-06)
(3.165054850810445676e-06 7.787652904722718410e-08 0.000000000000000000e+00 1.328643746796514891e-08 0.000000000000000000e+00 1.164150495325477387e-06)
(3.189145819305013990e-06 7.844119747218478385e-08 0.000000000000000000e+00 1.358665656978746724e-08 0.000000000000000000e+00 1.175648862801592194e-06)
(3.216338527254117207e-06 7.894280488611396014e-08 0.000000000000000000e+00 1.382952572046474592e-08 0.000000000000000000e+00 1.185699669275839138e-06)
(3.249823706958777785e-06 7.949135899417856641e-08 0.000000000000000000e+00 1.411015453621381327e-08 0.000000000000000000e+00 1.195237371075028637e-06)
(3.277780076908963256e-06 7.985819289129632925e-08 0.000000000000000000e+00 1.436180493347962791e-08 0.000000000000000000e+00 1.201601395144429008e-06)
(3.305052972140588834e-06 8.035477173608114409e-08 0.000000000000000000e+00 1.455534965809817935e-08 0.000000000000000000e+00 1.206642345437709140e-06)
(3.328239577395387413e-06 8.082420756529849249e-08 0.000000000000000000e+00 1.476062614711805285e-08 0.000000000000000000e+00 1.209894968166460621e-06)
(3.353507010539920794e-06 8.114047569674680295e-08 0.000000000000000000e+00 1.493160803667078772e-08 0.000000000000000000e+00 1.212928983119901814e-06)
(3.371013978661614986e-06 8.113392212226147550e-08 0.000000000000000000e+00 1.506713391833523237e-08 0.000000000000000000e+00 1.214672747736919639e-06)
(3.389414932819970732e-06 8.096046405897320718e-08 0.000000000000000000e+00 1.523194843600470750e-08 0.000000000000000000e+00 1.216806909846053895e-06)
(3.414461712013998179e-06 8.080038679155678199e-08 0.000000000000000000e+00 1.536758607516175255e-08 0.000000000000000000e+00 1.222206621808215447e-06)
(3.439540676761654161e-06 8.113533464466181959e-08 0.000000000000000000e+00 1.547269765338537832e-08 0.000000000000000000e+00 1.225111486972880319e-06)
(3.455670839005374847e-06 8.108760104631310111e-08 0.000000000000000000e+00 1.558408781764687331e-08 0.000000000000000000e+00 1.223968192676442709e-06)
(3.469016006587818830e-06 8.109463822737791775e-08 0.000000000000000000e+00 1.559955657219079165e-08 0.000000000000000000e+00 1.218082717234668911e-06)
(3.473193183590424732e-06 8.021687983129704119e-08 0.000000000000000000e+00 1.546675486780633082e-08 0.000000000000000000e+00 1.210085104044348136e-06)
(3.479080696469121289e-06 7.941689164797205595e-08 0.000000000000000000e+00 1.544886298742643869e-08 0.000000000000000000e+00 1.202839652072257837e-06)
(3.484839270702469425e-06 7.923299900005376195e-08 0.000000000000000000e+00 1.547516583025249757e-08 0.000000000000000000e+00 1.195140288182923785e-06)
(3.482710223570935832e-06 7.840424805374002334e-08 0.000000000000000000e+00 1.540388402151957305e-08 0.000000000000000000e+00 1.185157888135560656e-06)
(3.472372476789663928e-06 7.726054130052708657e-08 0.000000000000000000e+00 1.524028041806905195e-08 0.000000000000000000e+00 1.175841753411909560e-06)
(3.462341754826128097e-06 7.603781754624874875e-08 0.000000000000000000e+00 1.512657426681773776e-08 0.000000000000000000e+00 1.166420380939144591e-06)
(3.458102837126087627e-06 7.524323324774958557e-08 0.000000000000000000e+00 1.490117810777347390e-08 0.000000000000000000e+00 1.152003179471826928e-06)
(3.448146092750926029e-06 7.399166100514938416e-08 0.000000000000000000e+00 1.461442965337798544e-08 0.000000000000000000e+00 1.133174872448868930e-06)
(3.432762761805058546e-06 7.237355293480772859e-08 0.000000000000000000e+00 1.429276832518901278e-08 0.000000000000000000e+00 1.111561289782201627e-06)
(3.419778136869700980e-06 7.063898463595842118e-08 0.000000000000000000e+00 1.399765974621770729e-08 0.000000000000000000e+00 1.088896799573884937e-06)
(3.409306876397225071e-06 6.950109672368389237e-08 0.000000000000000000e+00 1.370943192823425932e-08 0.000000000000000000e+00 1.070588000240075241e-06)
(3.394021127344888217e-06 6.825920495934034575e-08 0.000000000000000000e+00 1.336779403136210112e-08 0.000000000000000000e+00 1.053112903793872770e-06)
(3.375340760916339035e-06 6.700639515534474547e-08 0.000000000000000000e+00 1.310732460726474227e-08 0.000000000000000000e+00 1.035826800663880618e-06)
(3.360754490946639737e-06 6.565137414154276913e-08 0.000000000000000000e+00 1.285717686974540660e-08 0.000000000000000000e+00 1.018187576508273643e-06)
(3.345961999708575808e-06 6.445684145344030636e-08 0.000000000000000000e+00 1.256147362066229461e-08 0.000000000000000000e+00 1.001321274572756835e-06)
(3.322653381441275948e-06 6.341294842915915244e-08 0.000000000000000000e+00 1.221852058869159678e-08 0.000000000000000000e+00 9.812201168131727439e-07)
(3.296002083682582254e-06 6.201702064993534047e-08 0.000000000000000000e+00 1.183221280163993984e-08 0.000000000000000000e+00 9.609207725647680576e-07)
(3.268782052137558631e-06 6.048820669745149304e-08 0.000000000000000000e+00 1.144265345813502834e-08 0.000000000000000000e+00 9.428304720928479376e-07)
(3.245596889828033088e-06 5.937464852932159006e-08 0.000000000000000000e+00 1.111048198117914597e-08 0.000000000000000000e+00 9.243553089144583315e-07)
(3.222546954465864233e-06 5.812933373204666380e-08 0.000000000000000000e+00 1.071441163072559212e-08 0.000000000000000000e+00 9.045987075114395079e-07)
(3.199572977298861125e-06 5.708830217174695973e-08 0.000000000000000000e+00 1.037114994310097754e-08 0.000000000000000000e+00 8.864785322423283470e-07)
(3.180764986395835374e-06 5.628729580228599439e-08 0.000000000000000000e+00 1.010430012403089916e-08 0.000000000000000000e+00 8.699907872998719704e-07)
(3.156919642332507548e-06 5.550923260073220934e-08 0.000000000000000000e+00 9.800728493094375987e-09 0.000000000000000000e+00 8.545176213515409117e-07)
(3.122069744180081403e-06 5.414687547752799762e-08 0.000000000000000000e+00 9.478809815279169702e-09 0.000000000000000000e+00 8.361906671615442803e-07)
(3.095772516530960811e-06 5.285368664082670419e-08 0.000000000000000000e+00 9.157921803972951693e-09 0.000000000000000000e+00 8.202370711567321253e-07)
(3.068552220230651351e-06 5.177725208523179228e-08 0.000000000000000000e+00 8.764538959064761816e-09 0.000000000000000000e+00 8.059470230290253718e-07)
(3.044544079044871726e-06 5.092556861083932214e-08 0.000000000000000000e+00 8.501476390128182532e-09 0.000000000000000000e+00 7.949385684509973360e-07)
(3.016562867729453053e-06 5.016057419738259034e-08 0.000000000000000000e+00 8.248828025373927131e-09 0.000000000000000000e+00 7.823883011229554459e-07)
(2.992246718302357916e-06 4.937394439757128994e-08 0.000000000000000000e+00 7.963952998527088403e-09 0.000000000000000000e+00 7.701423700330283629e-07)
(2.966032657898366367e-06 4.882963877246014498e-08 0.000000000000000000e+00 7.723602093889227143e-09 0.000000000000000000e+00 7.586597687262370467e-07)
(2.938965856739230179e-06 4.836300094956367264e-08 0.000000000000000000e+00 7.542900949317677708e-09 0.000000000000000000e+00 7.478025159641763104e-07)
(2.917601612904489043e-06 4.806511737466328079e-08 0.000000000000000000e+00 7.402635660164850986e-09 0.000000000000000000e+00 7.413722655337119508e-07)
(2.890226139646253882e-06 4.772064809025711895e-08 0.000000000000000000e+00 7.209348256137309142e-09 0.000000000000000000e+00 7.343993690337840670e-07)
(2.862692167547996640e-06 4.712891805383998668e-08 0.000000000000000000e+00 6.967894117658833779e-09 0.000000000000000000e+00 7.273133930434448414e-07)
(2.836881928916268555e-06 4.668463021489305810e-08 0.000000000000000000e+00 6.803781322075988768e-09 0.000000000000000000e+00 7.206831571897848613e-07)
(2.819031209738910941e-06 4.627219119737095574e-08 0.000000000000000000e+00 6.617749117285185818e-09 0.000000000000000000e+00 7.163728874064086768e-07)
(2.800663832363826290e-06 4.606341223745956488e-08 0.000000000000000000e+00 6.481589867826363107e-09 0.000000000000000000e+00 7.133538393095424414e-07)
(2.783706997274081223e-06 4.578078354325594794e-08 0.000000000000000000e+00 6.379212950380605288e-09 0.000000000000000000e+00 7.111397146789160933e-07)
(2.771920583004498915e-06 4.556751735648854267e-08 0.000000000000000000e+00 6.264062521710606647e-09 0.000000000000000000e+00 7.091661636824048888e-07)
(2.764147589861287745e-06 4.559382824466062543e-08 0.000000000000000000e+00 6.185627442786412116e-09 0.000000000000000000e+00 7.085335656631693787e-07)
(2.759550182075063354e-06 4.568074807233826438e-08 0.000000000000000000e+00 6.114045361049823311e-09 0.000000000000000000e+00 7.091494281187972810e-07)
(2.755991871588925287e-06 4.609475067626258500e-08 0.000000000000000000e+00 6.052703204337872632e-09 0.000000000000000000e+00 7.112299304460725450e-07)
(2.751912490332390190e-06 4.648053618777806118e-08 0.000000000000000000e+00 5.962670593209030218e-09 0.000000000000000000e+00 7.142675072148741126e-07)
(2.747587321658481532e-06 4.676874834066775672e-08 0.000000000000000000e+00 5.933015320590221169e-09 0.000000000000000000e+00 7.177965122460142429e-07)
(2.747580459529705726e-06 4.721612174363712391e-08 0.000000000000000000e+00 5.946868709657870243e-09 0.000000000000000000e+00 7.212925841030987049e-07)
(2.750460780675274780e-06 4.789189333354506272e-08 0.000000000000000000e+00 5.937172145070883613e-09 0.000000000000000000e+00 7.263397542282062786e-07)
(2.751129466021612218e-06 4.861698943364318693e-08 0.000000000000000000e+00 5.905498711148292715e-09 0.000000000000000000e+00 7.321320963726931320e-07)