/*--------------------------------*- C++ -*----------------------------------*\
| =========                 |                                                 |
| \\      /  F ield         | OpenFOAM: The Open Source CFD Toolbox           |
|  \\    /   O peration     | Version:  2.3.x                                 |
|   \\  /    A nd           | Web:      www.OpenFOAM.org                      |
|    \\/     M anipulation  |                                                 |
\*---------------------------------------------------------------------------*/
FoamFile
{
    version     2.0;
    format      ascii;
    class       volVectorField;
    location    "0";
    object      UDNS;
}
// * * * * * * * * * * * * * * * * * * * * * * * * * * * * * * * * * * * * * //

dimensions      [0 1 -1 0 0 0 0];

internalField   nonuniform List<vector> 
14751
(
(1.578431838995748675e-03 -1.385986582818017596e-07 2.325296237108205711e-06)
(1.580319311497504391e-03 -8.801269620890203286e-08 2.368423242686166021e-06)
(1.579785248456056510e-03 1.193193484011622978e-07 2.381287884283474463e-06)
(1.576726127451689042e-03 8.784122787321396980e-08 2.378940355929148301e-06)
(1.571127218787619602e-03 3.031190592849361709e-07 2.387707448653424871e-06)
(1.563182053841262378e-03 3.429888281449730371e-07 2.407295805711626835e-06)
(1.552988025484871096e-03 4.204740709589941323e-07 2.438297143924539349e-06)
(1.540614617202319030e-03 6.059242447460635015e-07 2.425415529446574831e-06)
(1.526210150523777103e-03 5.003605602843205666e-07 2.370793511954017966e-06)
(1.510034481638771560e-03 7.815089408196943047e-07 2.325146888589700340e-06)
(1.492340703701258925e-03 6.911332127771617555e-07 2.327955879391169267e-06)
(1.473325645835829416e-03 8.039455065002343116e-07 2.351425174144320541e-06)
(1.453268800169524137e-03 8.772980763143363186e-07 2.390932643292542087e-06)
(1.432492133510305079e-03 7.685330986499572079e-07 2.382656052139261852e-06)
(1.411220369735559366e-03 1.029153574639644310e-06 2.327249569064254287e-06)
(1.389669620460774833e-03 7.874271580227799103e-07 2.267349821884385059e-06)
(1.367951260872809745e-03 9.485817160993679420e-07 2.205843428541241882e-06)
(1.346196308317206859e-03 8.993555367355670983e-07 2.156521780035117392e-06)
(1.324613773015583277e-03 8.360410154575747585e-07 2.131077384311963434e-06)
(1.303326812574194613e-03 9.827375320041817138e-07 2.141839876860459472e-06)
(1.282472198156294754e-03 7.116798983142948885e-07 2.162452569711728162e-06)
(1.262229238842382199e-03 9.143582562284225146e-07 2.121742466076169058e-06)
(1.242689592392369913e-03 7.559311851796853116e-07 2.117435551942755447e-06)
(1.223861798192896026e-03 7.551882410253491548e-07 2.085928317933983342e-06)
(1.205756554546226966e-03 7.885884140137378817e-07 1.999687262483962282e-06)
(1.188472433325359848e-03 6.068074800587010602e-07 1.953640127623410955e-06)
(1.172022078508804920e-03 7.756805323952284772e-07 1.931677309951672250e-06)
(1.156397243426018255e-03 5.708875349425252184e-07 2.004622294221919691e-06)
(1.141398683832936089e-03 6.368219332609095784e-07 2.111272482412867505e-06)
(1.127010082716706652e-03 5.971730995198970820e-07 2.157253964688172716e-06)
(1.113335918203737238e-03 5.115988093226892940e-07 2.138750445406779404e-06)
(1.100342928389682218e-03 5.937400126649877911e-07 2.103550430709672616e-06)
(1.088062657365133782e-03 4.307079259489214424e-07 2.073308355780905975e-06)
(1.076442098190855123e-03 5.052863438856373895e-07 2.022297594578720495e-06)
(1.065309289191096378e-03 4.369866751000205684e-07 1.873537142365215820e-06)
(1.054782906580432672e-03 4.175924127684120211e-07 1.757059617471058976e-06)
(1.044686340650260135e-03 4.364427770493449343e-07 1.713474079372436446e-06)
(1.034818281784030203e-03 3.763510184196633128e-07 1.683351419504042527e-06)
(1.025570103002232131e-03 3.950396469697715769e-07 1.743759437683766567e-06)
(1.016922403498781661e-03 3.473015442559405694e-07 1.724660630918095936e-06)
(1.008816502819495078e-03 3.285094779111612594e-07 1.728402425060297788e-06)
(1.001249300747928794e-03 3.072189027271378769e-07 1.868327805503929897e-06)
(9.940389828776371745e-04 3.061715246090285119e-07 2.064420686143883322e-06)
(9.869919159267211833e-04 2.786070869728127298e-07 2.233439461493148905e-06)
(9.803741251368628968e-04 2.857618111067561589e-07 2.392205300959707707e-06)
(9.743943460780874746e-04 2.321034401944276038e-07 2.491550362818048468e-06)
(9.690507460493339104e-04 2.127561981649125830e-07 2.418890424915968968e-06)
(9.642718374347674162e-04 2.173578772291204902e-07 2.283355380259129351e-06)
(9.597259917197199395e-04 1.477337269704874467e-07 2.209418882127457351e-06)
(9.558904941615001694e-04 2.153421374682658505e-07 2.199184492891925395e-06)
(9.526955181059582403e-04 8.662241810273374156e-08 2.163557390273905191e-06)
(9.502009403997164344e-04 1.262205234003472035e-07 2.188878041594234043e-06)
(9.484930865626991885e-04 6.722683339076700361e-08 2.247491854579558119e-06)
(9.475418354046301166e-04 1.177025330292171626e-08 2.201220487317496410e-06)
(9.474509437157865779e-04 5.140760810923937117e-08 2.147803838947849510e-06)
(9.485258474098150379e-04 -1.432343373243822808e-07 2.135803465892694928e-06)
(9.506474758882447118e-04 -3.702231970416839132e-08 2.103584436371731359e-06)
(9.538636824243541118e-04 -1.658881927535491944e-07 2.145281948683810733e-06)
(9.582125225403949125e-04 -1.954258479126314601e-07 2.193059186546723117e-06)
(9.636001231752360733e-04 -1.767480356081967183e-07 2.196398146771634837e-06)
(9.699871205804779569e-04 -3.562373804994150107e-07 2.205962899917550474e-06)
(9.774242832900896950e-04 -2.086495339292404120e-07 2.292823721289750342e-06)
(9.859463250413091039e-04 -4.243136356332541892e-07 2.284354340774719267e-06)
(9.955248231867286531e-04 -3.779239028653550160e-07 2.243363287340966235e-06)
(1.006120280809247921e-03 -4.305937913904021247e-07 2.185445334271467482e-06)
(1.017797143999487003e-03 -5.540618152918118425e-07 2.185619964801995234e-06)
(1.030353056275075656e-03 -4.094935566807750751e-07 2.175909200814613307e-06)
(1.043611775197356237e-03 -6.524601230966867761e-07 2.207717473695227084e-06)
(1.057523054551436385e-03 -5.137687047330130328e-07 2.217147673648263908e-06)
(1.072374385876605479e-03 -6.397089285228283119e-07 2.177116798704684859e-06)
(1.088166378951791391e-03 -6.840913537504750205e-07 2.165483340008957775e-06)
(1.104662767741407085e-03 -6.098549975849918630e-07 2.185103106643199223e-06)
(1.121799292193089532e-03 -8.260003970316248971e-07 2.156920486067228194e-06)
(1.139554682322831353e-03 -6.382761689797783010e-07 2.135534477375121828e-06)
(1.157814329468817745e-03 -8.077178661656474809e-07 2.109041171561094533e-06)
(1.176604900066651350e-03 -7.722594773406553333e-07 2.073689591263028910e-06)
(1.195879684362633356e-03 -7.617635707153850150e-07 2.021234038799797134e-06)
(1.215335483699673310e-03 -8.718042446735058610e-07 2.012265795008827670e-06)
(1.234962862268750581e-03 -6.988795425870084453e-07 2.016719889270407370e-06)
(1.254803885432239762e-03 -8.922658995512921166e-07 2.057878376210329014e-06)
(1.274848560157912543e-03 -7.871376270677675732e-07 2.102118886899548423e-06)
(1.295025460615874214e-03 -8.308397389964505084e-07 2.122067626915903569e-06)
(1.315274388122433889e-03 -8.657099186301578982e-07 2.127997542745471130e-06)
(1.335589238701738587e-03 -7.810198167671747960e-07 2.103388358231296285e-06)
(1.355941721858255075e-03 -9.199717996497332050e-07 2.082975876513200273e-06)
(1.376291475800697859e-03 -7.945819390594293185e-07 2.075505772823464305e-06)
(1.396414007516310826e-03 -8.488648773221016442e-07 2.076303348476867478e-06)
(1.416186916591261925e-03 -8.181976360262236721e-07 2.112265981113642420e-06)
(1.435575044998849614e-03 -7.839422449555725478e-07 2.115724364602274939e-06)
(1.454464503105187649e-03 -8.060827747932328885e-07 2.084958529427342694e-06)
(1.472725979952532781e-03 -7.228461391619776482e-07 2.051086758662394347e-06)
(1.490184047261725866e-03 -7.265071636181025906e-07 2.022172260081246607e-06)
(1.506636856830394396e-03 -6.658845261053914767e-07 2.017784740506089158e-06)
(1.521874544653036097e-03 -6.179417296290872523e-07 2.031672311117262394e-06)
(1.535794436560227252e-03 -5.564292324969092649e-07 2.034872764525624684e-06)
(1.548238202475146850e-03 -5.152895169308877747e-07 2.049741234177225034e-06)
(1.558954607479853512e-03 -3.960320940077082702e-07 2.070157875880638421e-06)
(1.567643813848564787e-03 -3.548417392365060264e-07 2.132858524964213015e-06)
(1.574178492899764269e-03 -2.382687583951020883e-07 2.233424767327752866e-06)
(4.806324949741462398e-03 -4.220329144680343121e-07 7.080527041993613224e-06)
(4.812072734752236187e-03 -2.683127043735710305e-07 7.211862206762612405e-06)
(4.810444437698823891e-03 3.642647020213214776e-07 7.251026193900751936e-06)
(4.809007660037513052e-03 2.694884698907373242e-07 7.255761561805552745e-06)
(4.799783056447766774e-03 9.246316992379318832e-07 7.294476777932700307e-06)
(4.783323028476398238e-03 1.051363241870372692e-06 7.366352911188198301e-06)
(4.759890998004516829e-03 1.287103332689546382e-06 7.473423550989684705e-06)
(4.729659500072501410e-03 1.862904381926207124e-06 7.445940618204084860e-06)
(4.693065051731324690e-03 1.536084475282125401e-06 7.290056716581101862e-06)
(4.650871187892191387e-03 2.404358559121962506e-06 7.161407128067378267e-06)
(4.603823702734802584e-03 2.135955221309099738e-06 7.181794745800139824e-06)
(4.552515884413832134e-03 2.479794182207292919e-06 7.266023389180148246e-06)
(4.497803969772975335e-03 2.719989177956080629e-06 7.400000388939999486e-06)
(4.440660788376704117e-03 2.377778932705121197e-06 7.386125791110382326e-06)
(4.381773296531872239e-03 3.200392223403452113e-06 7.225910442384614903e-06)
(4.321805794712690364e-03 2.453801645017002546e-06 7.051247005255201367e-06)
(4.261101135465870937e-03 2.949954028807346723e-06 6.871055666638012388e-06)
(4.193334653508269151e-03 2.806362144752674999e-06 6.717400243403156746e-06)
(4.132739871102425293e-03 2.604372274596551763e-06 6.648950206467775848e-06)
(4.072842040158475632e-03 3.075027679976813561e-06 6.693322816159048761e-06)
(4.014085335770473627e-03 2.231427168037691075e-06 6.768413644552865406e-06)
(3.957047866306042522e-03 2.863364605980101202e-06 6.651602437819890019e-06)
(3.895782689856420230e-03 2.373530095865333755e-06 6.638197978537938238e-06)
(3.842878626537066244e-03 2.367569028329585481e-06 6.549647130198965935e-06)
(3.792067937719615593e-03 2.482847505070264377e-06 6.288848417115722082e-06)
(3.743653333239621659e-03 1.908683850000031028e-06 6.153922886510687888e-06)
(3.691844949428381081e-03 2.441421724913597522e-06 6.084845038420335721e-06)
(3.648409856952522859e-03 1.802929675195686737e-06 6.324706225504622219e-06)
(3.601090157423306529e-03 2.007431333238675767e-06 6.661221328876038036e-06)
(3.561337462936415253e-03 1.888099019210384046e-06 6.816933999307755966e-06)
(3.518127758990149175e-03 1.615639593351418074e-06 6.758403797266338993e-06)
(3.482572358349937582e-03 1.880061575365965942e-06 6.657709463373103543e-06)
(3.443706126853670300e-03 1.363968629421602398e-06 6.561965626751420349e-06)
(3.406927553915015117e-03 1.598491286221867120e-06 6.400479134660010480e-06)
(3.377019371656287544e-03 1.385851011083505378e-06 5.938923154060528059e-06)
(3.343651183713285905e-03 1.323204719160672577e-06 5.569853157156561374e-06)
(3.311645504723301995e-03 1.383989536468223248e-06 5.431654422621262313e-06)
(3.280368951586488079e-03 1.192833822384095893e-06 5.336243586734477696e-06)
(3.256180535335424005e-03 1.254105684372061616e-06 5.536442177859916370e-06)
(3.228724334498128071e-03 1.102758675491355522e-06 5.475759711725912545e-06)
(3.202988377286537444e-03 1.042958309891925135e-06 5.487721633358992054e-06)
(3.178966529874246993e-03 9.754200161585317324e-07 5.931940782474180726e-06)
(3.156073770636072875e-03 9.720945906335345263e-07 6.554535678505946887e-06)
(3.133699333066918002e-03 8.845775011385611283e-07 7.091170290239793739e-06)
(3.112684649077542692e-03 9.071530213676107311e-07 7.595348349410138318e-06)
(3.093699137782006826e-03 7.370821056060621249e-07 7.910666965486971779e-06)
(3.076733570374427275e-03 6.752812143191187685e-07 7.679918199718105634e-06)
(3.061563083854974832e-03 6.901112602023647951e-07 7.249653332321761486e-06)
(3.047130023709700760e-03 4.690545831312345035e-07 7.014904950753733027e-06)
(3.034952318962355275e-03 6.837112864616522052e-07 6.982410764930924711e-06)
(3.024808269986010902e-03 2.750261774761426280e-07 6.869294714118724920e-06)
(3.016887985768694318e-03 4.007501617960484330e-07 6.949687782060759867e-06)
(3.011466193919005822e-03 2.130432223328797878e-07 7.135786421084872822e-06)
(3.008445703207053568e-03 3.784028206805777771e-08 6.988891367666198016e-06)
(3.008156499988235821e-03 1.627677886162775521e-07 6.819314428244546364e-06)
(3.011569565525757698e-03 -4.547690210048525830e-07 6.781176004208394842e-06)
(3.018305735944771476e-03 -1.175458650607188678e-07 6.678880585479349391e-06)
(3.028517191696917556e-03 -5.266950119924477314e-07 6.811270187070184165e-06)
(3.042322255081842883e-03 -6.198732045246850104e-07 6.962934539651765490e-06)
(3.059427388359323412e-03 -5.617609509012772291e-07 6.973576575727021795e-06)
(3.074855674760404705e-03 -1.128630136385767741e-06 6.992877703863485404e-06)
(3.098430810533029690e-03 -6.607522765889643305e-07 7.268229669399049164e-06)
(3.125440506156968497e-03 -1.346334423903933408e-06 7.241438332931599402e-06)
(3.155803340356593163e-03 -1.196636428910457199e-06 7.111503972440177634e-06)
(3.189389854331649635e-03 -1.366298353474724069e-06 6.927895105576456440e-06)
(3.221315527311529280e-03 -1.752189401964017428e-06 6.917499525571398388e-06)
(3.261054198133858488e-03 -1.297416033089804858e-06 6.886757528128140792e-06)
(3.303017298564752888e-03 -2.066418811595425594e-06 6.987384914424692495e-06)
(3.341758087382777891e-03 -1.622051449534527829e-06 7.006226275040722444e-06)
(3.388687273195706111e-03 -2.022851666041244516e-06 6.879721643149123766e-06)
(3.433140040311363512e-03 -2.156158013393731246e-06 6.832081307478198637e-06)
(3.485185125789302171e-03 -1.926149249924178486e-06 6.893969836205517124e-06)
(3.533641015813818696e-03 -2.599773673513750233e-06 6.794366286691066659e-06)
(3.589560140152971580e-03 -2.007796456296917580e-06 6.726942399553929144e-06)
(3.641288028598807253e-03 -2.542912472586016533e-06 6.633007934015236473e-06)
(3.694500209010541381e-03 -2.422210023625876787e-06 6.511501446138913183e-06)
(3.755012391160566024e-03 -2.395145941562381010e-06 6.346786626493165803e-06)
(3.810036679071886548e-03 -2.730593463354122304e-06 6.308444896448757890e-06)
(3.865383107211166607e-03 -2.190494174956679109e-06 6.312352092217238725e-06)
(3.921210840610787202e-03 -2.791184579193728423e-06 6.430753191475666218e-06)
(3.983850098326077033e-03 -2.457031592703657563e-06 6.569030477837148533e-06)
(4.040417138914407028e-03 -2.595336967949017733e-06 6.620805560439012140e-06)
(4.097017239969667941e-03 -2.693719825846086345e-06 6.628760928283803999e-06)
(4.153619858907925573e-03 -2.431707782234597219e-06 6.541596720711093621e-06)
(4.210136209602421097e-03 -2.858999419343488140e-06 6.467665351644935249e-06)
(4.266441243472264208e-03 -2.460961775958159185e-06 6.434091081909239988e-06)
(4.321839813537212485e-03 -2.629311460155953198e-06 6.426105759271372849e-06)
(4.375957295417853138e-03 -2.526488053759428609e-06 6.526804238888913055e-06)
(4.428701753273880069e-03 -2.419716343480087673e-06 6.527048356740497388e-06)
(4.479707759488383949e-03 -2.481865411272628041e-06 6.421747783151555449e-06)
(4.528594066972740223e-03 -2.222186966977783098e-06 6.307165202202330888e-06)
(4.574829295968027738e-03 -2.230881655486243654e-06 6.208104564355220150e-06)
(4.617812747318334604e-03 -2.040835673656809811e-06 6.184487172059777111e-06)
(4.656912803273781723e-03 -1.890993853383082742e-06 6.216909666821906404e-06)
(4.691834323654152719e-03 -1.700095560223570135e-06 6.216526007392420738e-06)
(4.722113184498465122e-03 -1.571486936344176963e-06 6.251694296616953664e-06)
(4.754803178964105842e-03 -1.207696949382742364e-06 6.313948235932043263e-06)
(4.773470008433552611e-03 -1.080855979729879798e-06 6.494491810017749546e-06)
(4.793373341513500717e-03 -7.255151312714504691e-07 6.800774917205793145e-06)
(8.030110554008882198e-03 -6.995884385562361915e-07 1.184079446059307978e-05)
(8.035692418373114460e-03 -2.583268414258995875e-07 1.204802188332780214e-05)
(8.043058495763730914e-03 8.262860517959675985e-07 1.212950838884841447e-05)
(8.036936204950892795e-03 9.416825654449097592e-07 1.215138184994151772e-05)
(8.025025088095123077e-03 1.980864302983609657e-06 1.223210180046040976e-05)
(8.007543176924408063e-03 2.535716817147413424e-06 1.236600762040783955e-05)
(7.971044780299569796e-03 3.123336392245408847e-06 1.253276111672813967e-05)
(7.930950677521524106e-03 3.986897114835706647e-06 1.250592103121222129e-05)
(7.880472630099102579e-03 3.901914587076493369e-06 1.227287817406824764e-05)
(7.820855337650140307e-03 5.146156321026160838e-06 1.207203519193842617e-05)
(7.753344175903739179e-03 5.169042994639873971e-06 1.212084455863806073e-05)
(7.677040900654141971e-03 5.859557175189515109e-06 1.229312707654030755e-05)
(7.593211089214545358e-03 6.327886490380321948e-06 1.251947161864038942e-05)
(7.509415751992720017e-03 5.598697477273776639e-06 1.255373216960153134e-05)
(7.420732917425772700e-03 6.932083001442989489e-06 1.237681355471776435e-05)
(7.326662881709689046e-03 6.204537117709384503e-06 1.211222130812209689e-05)
(7.234988289000437653e-03 6.999834063734369824e-06 1.182064953706831869e-05)
(7.139521501396085476e-03 6.470322689505486551e-06 1.158092184905164392e-05)
(7.052181217781670550e-03 6.182074462805507549e-06 1.148076584686218322e-05)
(6.956659715120827592e-03 6.879194516907885637e-06 1.157100701436155609e-05)
(6.865194384052244678e-03 5.959958106518544225e-06 1.169122298630862421e-05)
(6.776543408838812954e-03 6.478360587359318108e-06 1.154154549724838535e-05)
(6.691205562320789307e-03 6.076491722282998378e-06 1.152437706118832830e-05)
(6.607427763094324627e-03 5.981835887908273751e-06 1.134829208037245850e-05)
(6.525781509289969168e-03 6.107687096414043867e-06 1.095340919776964911e-05)
(6.450539129479820888e-03 4.967527184070596612e-06 1.075223496166998467e-05)
(6.374241924698272055e-03 5.526508462215800211e-06 1.064099960660313903e-05)
(6.301640893265419811e-03 4.488090456123492708e-06 1.092115181181402274e-05)
(6.234000556397237269e-03 5.027580498129505546e-06 1.139898538996219119e-05)
(6.169536359605834464e-03 4.490428272354420066e-06 1.163199074688843070e-05)
(6.109970947745150746e-03 4.030450235126951387e-06 1.154785769896782289e-05)
(6.046597601704270519e-03 4.323303150395766363e-06 1.139615019038573138e-05)
(5.992457640798518059e-03 3.620386593740498289e-06 1.124744033688459619e-05)
(5.936702337244768868e-03 3.963412027355307173e-06 1.096375319313503473e-05)
(5.885236748999436544e-03 3.580156825598902714e-06 1.029883351221648721e-05)
(5.835786227465581885e-03 3.255097141654126358e-06 9.742430144292344284e-06)
(5.788665519497579633e-03 3.448725762753533398e-06 9.466900336599889376e-06)
(5.742341929910795700e-03 3.081115494355054305e-06 9.317973032350879148e-06)
(5.699563165161453462e-03 3.015788225223752171e-06 9.609022914782387110e-06)
(5.660289733854692931e-03 2.780295110046010119e-06 9.537084786274091606e-06)
(5.619366741817632266e-03 2.568087368569926063e-06 9.614157863122095070e-06)
(5.585150037953848928e-03 2.417942279291509691e-06 1.037189651610054136e-05)
(5.549366977187874042e-03 2.390782628405486241e-06 1.139341372251091382e-05)
(5.518387645035213208e-03 2.228979596586297421e-06 1.233839100486257799e-05)
(5.485490993773437657e-03 2.150723749396150188e-06 1.316758767031672965e-05)
(5.460808154461725683e-03 1.745342047509083528e-06 1.360460616296977761e-05)
(5.435228545357369788e-03 1.568058311061699085e-06 1.327529391896512029e-05)
(5.412482340385509419e-03 1.503522908922117938e-06 1.273383629018054517e-05)
(5.391639980842214894e-03 1.248721670076174147e-06 1.242710144793232477e-05)
(5.374424642440785507e-03 1.294382258885276762e-06 1.242000683367618238e-05)
(5.360675123974213349e-03 8.001850220797294795e-07 1.226263678205721616e-05)
(5.350973350708465928e-03 8.699382668283235011e-07 1.229166734495564259e-05)
(5.345231248205010999e-03 2.344437462553012723e-07 1.248608757672567898e-05)
(5.343552956614056743e-03 1.374813826596702864e-07 1.221687660962170190e-05)
(5.341869606562462541e-03 -1.128428780605477754e-07 1.193259988347861216e-05)
(5.350699398115672800e-03 -8.861054069503556107e-07 1.187351557217622612e-05)
(5.360644713676776009e-03 -8.416604059201709276e-07 1.177798903318199187e-05)
(5.382195125024073767e-03 -1.636197115521071922e-06 1.200157944483902168e-05)
(5.402763172919111852e-03 -1.897798689526204471e-06 1.221637876054419884e-05)
(5.435983293261876723e-03 -1.986186884041158177e-06 1.215019839450784204e-05)
(5.468532266443002984e-03 -2.613841229022176828e-06 1.221616312446756863e-05)
(5.506999933817670161e-03 -2.331717221027923872e-06 1.257373736286770076e-05)
(5.549981212046905046e-03 -3.201721772229675500e-06 1.253871732421338588e-05)
(5.600577572863544608e-03 -3.136276219084287156e-06 1.236584287911453458e-05)
(5.654570456262584394e-03 -3.900745080281196124e-06 1.209834583449253515e-05)
(5.711969009088583085e-03 -4.563286186567555773e-06 1.204499198213917578e-05)
(5.777011956872100083e-03 -3.849322656959447514e-06 1.195177892291355135e-05)
(5.841400747964301671e-03 -5.013230233299086067e-06 1.203351275184595494e-05)
(5.911539394570368075e-03 -4.659966683254683976e-06 1.207604766703306847e-05)
(5.981922940405507566e-03 -4.972328726463958949e-06 1.189223287768142358e-05)
(6.058886208858853262e-03 -5.261298518188413850e-06 1.176783419260987532e-05)
(6.136923045262247800e-03 -5.345188668238548255e-06 1.182618021081546440e-05)
(6.217795380746108172e-03 -6.023176317971098446e-06 1.170038885902745674e-05)
(6.302767245492514256e-03 -5.341167479798441290e-06 1.159245733924722087e-05)
(6.381764455114315865e-03 -6.018876968457113586e-06 1.145831663452010114e-05)
(6.472155133511222312e-03 -5.893091038222177858e-06 1.126081233741156145e-05)
(6.554433680317486507e-03 -5.854363143535385002e-06 1.099394905747384237e-05)
(6.639525645870792900e-03 -6.628793693168142661e-06 1.092879702303209427e-05)
(6.732800431658116092e-03 -5.811862739775172194e-06 1.097145283571595377e-05)
(6.812829721813093084e-03 -6.391492470530093256e-06 1.114581116976630165e-05)
(6.900986953287824993e-03 -5.861449820345770068e-06 1.134150949730877379e-05)
(6.987127812532436394e-03 -6.277943170667392682e-06 1.141106584860279660e-05)
(7.065229941667215685e-03 -6.358227285725546549e-06 1.139522840039009115e-05)
(7.152576674887774905e-03 -5.916170245629502768e-06 1.125230292857732862e-05)
(7.231581288388790225e-03 -6.317290435546091234e-06 1.112122307320659184e-05)
(7.317377805340630897e-03 -5.655065181543917208e-06 1.104372951400720227e-05)
(7.393635392730583261e-03 -5.964196286375404027e-06 1.100169357381304864e-05)
(7.467524578442154976e-03 -5.592312672596035940e-06 1.110132346646451129e-05)
(7.538721008356404941e-03 -5.428023676773956314e-06 1.105585697188141081e-05)
(7.605718330550534020e-03 -5.413085481200643529e-06 1.088072815753302453e-05)
(7.671130241846200147e-03 -4.859200332301529259e-06 1.071233714642009931e-05)
(7.731207960938603352e-03 -4.732475330344442649e-06 1.055472460717372639e-05)
(7.791621975438839387e-03 -4.288261184123143238e-06 1.051024055204850482e-05)
(7.838717334429789671e-03 -3.941921148112850582e-06 1.053182214232481487e-05)
(7.885858431544625485e-03 -3.503518794087917561e-06 1.051733646658726574e-05)
(7.925469256595270295e-03 -3.129220849867740541e-06 1.054262649585940698e-05)
(7.956074127572721963e-03 -2.450740810694895362e-06 1.061916982799703892e-05)
(7.989333540981628790e-03 -2.078208810528092270e-06 1.092647541756417941e-05)
(8.012249017188562139e-03 -1.409652400249485452e-06 1.139990844730382621e-05)
(1.091297040600795049e-02 -1.023516749134105335e-06 1.613934491422000397e-05)
(1.091165895884744358e-02 4.097625878742228094e-07 1.637965662945245130e-05)
(1.091059212557553976e-02 1.743299737778957014e-06 1.648227350371789924e-05)
(1.090596498235868808e-02 3.187526774671551338e-06 1.658761836310841092e-05)
(1.089300320053211181e-02 4.336284398876531546e-06 1.674032661469942372e-05)
(1.087112045598417551e-02 6.219182615279279294e-06 1.691551832568280296e-05)
(1.083594711846949145e-02 7.740125706509743249e-06 1.710047599263326740e-05)
(1.079305972455379785e-02 8.453617668583481162e-06 1.708976149812563292e-05)
(1.073772895301573251e-02 9.835737865606529104e-06 1.683073622392451980e-05)
(1.067136040832793523e-02 1.069509369042036813e-05 1.657004443562939641e-05)
(1.060150135557252557e-02 1.217163194048616376e-05 1.665747224092820948e-05)
(1.051125066416003229e-02 1.297415344092431528e-05 1.695215308383649357e-05)
(1.042286058903050573e-02 1.346090333412600523e-05 1.728917628794337326e-05)
(1.032551140239247947e-02 1.362163316131101490e-05 1.749381955157812158e-05)
(1.022494557044169652e-02 1.404460604631910980e-05 1.747026826850587680e-05)
(1.012442746629061037e-02 1.459329541909689560e-05 1.720455393141312873e-05)
(1.001272564616116634e-02 1.466986189870746097e-05 1.681673327773760537e-05)
(9.903490082323208182e-03 1.418269697368540603e-05 1.647520241712401072e-05)
(9.798763483853920736e-03 1.428049502265922864e-05 1.632942759101951280e-05)
(9.691100971433278671e-03 1.403249826074576671e-05 1.649800133634428420e-05)
(9.589680917403801963e-03 1.411518617805911572e-05 1.664270855419939773e-05)
(9.486396562288867615e-03 1.326704371524515385e-05 1.655759559834506852e-05)
(9.386020439169064089e-03 1.351178850528480644e-05 1.648260075871188371e-05)
(9.287078840111468933e-03 1.297954751968145081e-05 1.618246547561520753e-05)
(9.197477579896650574e-03 1.240017739398156542e-05 1.578690446231713579e-05)
(9.105286706662338650e-03 1.183558654072175985e-05 1.554574114507426843e-05)
(9.019247947435036009e-03 1.111735345419591151e-05 1.539565042420318244e-05)
(8.933032379575819165e-03 1.068217365303138767e-05 1.548643527290349248e-05)
(8.857139743412928423e-03 1.045051147801255521e-05 1.587290151875896682e-05)
(8.781057414130325617e-03 9.687826428607892215e-06 1.612062141181056323e-05)
(8.706330112940393121e-03 9.345489949303941251e-06 1.600865471826856958e-05)
(8.639238438049093999e-03 8.736967261141737504e-06 1.588767534001057379e-05)
(8.573362418205386290e-03 8.426348684975924365e-06 1.569174582426867317e-05)
(8.510948432526890123e-03 8.019476928970738081e-06 1.527545564049988383e-05)
(8.453212673012432121e-03 7.701111990174301940e-06 1.467995743910346119e-05)
(8.393834526375505006e-03 7.187448066069833288e-06 1.402476833574318838e-05)
(8.337705937806395851e-03 7.034823571416925738e-06 1.355514599067573684e-05)
(8.284301787429941555e-03 6.843869233101241099e-06 1.338427335685123278e-05)
(8.235078957248136503e-03 6.272816178117836182e-06 1.369261054156352425e-05)
(8.190477539461704301e-03 5.959762314513282036e-06 1.366333823726514060e-05)
(8.145091626549957886e-03 5.454253193176611831e-06 1.391768852313358021e-05)
(8.107157510842608050e-03 5.149712218082999137e-06 1.492007933453040471e-05)
(8.068265744763518030e-03 4.980785567433538224e-06 1.634252211664820550e-05)
(8.031237827299959539e-03 4.802462617991054378e-06 1.762332862969011150e-05)
(7.993524538214304836e-03 4.303581733199569737e-06 1.869203017695611482e-05)
(7.965299826838944872e-03 3.823930800697173185e-06 1.903929570025677978e-05)
(7.937361599985976249e-03 3.286025861189229773e-06 1.873963823861622506e-05)
(7.918056661000536997e-03 2.958425520138844532e-06 1.842786062231029261e-05)
(7.898245719860846198e-03 2.785401424928174599e-06 1.823837105701595819e-05)
(7.882923224173492283e-03 2.089398527681857829e-06 1.834310314252120345e-05)
(7.872374323511661595e-03 1.887980344793079092e-06 1.821026656676744913e-05)
(7.867193195716113210e-03 1.203818449120783855e-06 1.802215283972077647e-05)
(7.863224995836129091e-03 3.883486431027631034e-07 1.798522244585529594e-05)
(7.869430915341158947e-03 2.188316458340522398e-07 1.755493045155500804e-05)
(7.877070843082596696e-03 -1.083629864141059367e-06 1.719137869921662717e-05)
(7.896413476465028586e-03 -1.485054011692637388e-06 1.712395815706057177e-05)
(7.919131941732203764e-03 -2.672995037083688301e-06 1.720733023033819839e-05)
(7.951726781582374448e-03 -3.297750402704378492e-06 1.749878569869776421e-05)
(7.985722092021509122e-03 -4.132872001241576584e-06 1.767906072721230564e-05)
(8.033923159838307626e-03 -5.028911162136877008e-06 1.740791771171581166e-05)
(8.083004961200131178e-03 -5.259897639291444385e-06 1.754948942105794883e-05)
(8.139056616441859779e-03 -6.379729768782568312e-06 1.779433904927109006e-05)
(8.201082398056665917e-03 -6.677818791359765299e-06 1.778581116324168558e-05)
(8.273026208997062009e-03 -7.652085527628687850e-06 1.767394532169180724e-05)
(8.349972433454089238e-03 -8.769977573749687430e-06 1.744248830208174248e-05)
(8.426778560998562928e-03 -9.218443650320775888e-06 1.722680004341924681e-05)
(8.511236305504373684e-03 -9.765189412566837240e-06 1.701076404545352405e-05)
(8.601082784159599579e-03 -1.012084431825720386e-05 1.696351029061188658e-05)
(8.693562523686674051e-03 -1.103958431816701310e-05 1.700313739194769572e-05)
(8.787956624126147878e-03 -1.108282635969575584e-05 1.685239377805023401e-05)
(8.889384226000596884e-03 -1.157676934050870090e-05 1.657373747574266993e-05)
(8.992402525613034034e-03 -1.259419232094986925e-05 1.656308203115002098e-05)
(9.091082378786148610e-03 -1.238128412985064625e-05 1.647845593077129368e-05)
(9.193604200951411079e-03 -1.290534416400661240e-05 1.637045863058675949e-05)
(9.296283576186321548e-03 -1.278486582312758306e-05 1.626961571069271336e-05)
(9.406975512488466307e-03 -1.327707631860900332e-05 1.600159715830577327e-05)
(9.507974154594639807e-03 -1.344443686024084181e-05 1.572810052629890334e-05)
(9.612291723597503335e-03 -1.362266260874603859e-05 1.565365095803407944e-05)
(9.716446494086757729e-03 -1.365123451174969551e-05 1.577131854611979188e-05)