/*--------------------------------*- C++ -*----------------------------------*\
| =========                 |                                                 |
| \\      /  F ield         | OpenFOAM: The Open Source CFD Toolbox           |
|  \\    /   O peration     | Version:  2.3.x                                 |
|   \\  /    A nd           | Web:      www.OpenFOAM.org                      |
|    \\/     M anipulation  |                                                 |
\*---------------------------------------------------------------------------*/
FoamFile
{
    version     2.0;
    format      ascii;
    class       volScalarField;
    location    "0";
    object      V;
}
// * * * * * * * * * * * * * * * * * * * * * * * * * * * * * * * * * * * * * //

dimensions      [0 3 0 0 0 0 0];

internalField   nonuniform List<scalar> 
14751
(
3.63638e-05
3.63637e-05
3.63639e-05
3.63644e-05
3.63651e-05
3.63658e-05
3.63663e-05
3.63667e-05
3.63669e-05
3.63671e-05
3.63673e-05
3.6366e-05
3.63632e-05
3.63608e-05
3.63589e-05
3.63576e-05
3.63567e-05
3.63559e-05
3.63552e-05
3.63553e-05
3.63563e-05
3.63574e-05
3.63586e-05
3.63608e-05
3.63643e-05
3.63674e-05
3.63697e-05
3.6371e-05
3.63715e-05
3.63719e-05
3.63723e-05
3.63727e-05
3.6373e-05
3.63734e-05
3.63738e-05
3.63734e-05
3.63722e-05
3.6371e-05
3.63697e-05
3.63673e-05
3.63635e-05
3.63601e-05
3.63574e-05
3.63559e-05
3.63555e-05
3.63551e-05
3.63547e-05
3.63543e-05
3.63539e-05
3.63535e-05
3.63532e-05
3.63532e-05
3.63535e-05
3.63539e-05
3.63543e-05
3.63547e-05
3.63551e-05
3.63555e-05
3.63559e-05
3.63574e-05
3.636e-05
3.63634e-05
3.63672e-05
3.63696e-05
3.63708e-05
3.6372e-05
3.63732e-05
3.63737e-05
3.63736e-05
3.63736e-05
3.63735e-05
3.63734e-05
3.63733e-05
3.63732e-05
3.63731e-05
3.6373e-05
3.63728e-05
3.63727e-05
3.63726e-05
3.63725e-05
3.63724e-05
3.63722e-05
3.63721e-05
3.63717e-05
3.63709e-05
3.63702e-05
3.63694e-05
3.63681e-05
3.63663e-05
3.6364e-05
3.63613e-05
3.63601e-05
3.63602e-05
3.63604e-05
3.63605e-05
3.63608e-05
3.63613e-05
3.6362e-05
3.63633e-05
3.79974e-05
3.80247e-05
3.81069e-05
3.82248e-05
3.83672e-05
3.85262e-05
3.86964e-05
3.8874e-05
3.90561e-05
3.92405e-05
3.94257e-05
3.96098e-05
3.97916e-05
3.9971e-05
4.01469e-05
4.03189e-05
4.04864e-05
4.06486e-05
4.08052e-05
4.09564e-05
4.11017e-05
4.12406e-05
4.13728e-05
4.14988e-05
4.16184e-05
4.17312e-05
4.18373e-05
4.19364e-05
4.20287e-05
4.21147e-05
4.21948e-05
4.2269e-05
4.23376e-05
4.24007e-05
4.24587e-05
4.25114e-05
4.25588e-05
4.26018e-05
4.26404e-05
4.26745e-05
4.27042e-05
4.27303e-05
4.27529e-05
4.27726e-05
4.27895e-05
4.28031e-05
4.28135e-05
4.28209e-05
4.28252e-05
4.28265e-05
4.28248e-05
4.28202e-05
4.28129e-05
4.28024e-05
4.27888e-05
4.27719e-05
4.27517e-05
4.2728e-05
4.27008e-05
4.26702e-05
4.26363e-05
4.25984e-05
4.25563e-05
4.25093e-05
4.24571e-05
4.24e-05
4.23377e-05
4.22696e-05
4.21956e-05
4.21157e-05
4.20298e-05
4.19377e-05
4.18392e-05
4.17342e-05
4.16225e-05
4.15041e-05
4.1379e-05
4.12473e-05
4.11089e-05
4.0964e-05
4.08129e-05
4.06557e-05
4.0493e-05
4.03248e-05
4.01518e-05
3.99747e-05
3.97941e-05
3.96107e-05
3.94255e-05
3.92396e-05
3.90543e-05
3.8872e-05
3.86946e-05
3.85246e-05
3.83658e-05
3.82238e-05
3.81062e-05
3.80242e-05
3.79972e-05
3.97003e-05
3.97443e-05
3.98882e-05
4.00955e-05
4.03465e-05
4.06278e-05
4.09299e-05
4.1246e-05
4.15713e-05
4.19019e-05
4.22349e-05
4.25677e-05
4.28981e-05
4.32249e-05
4.35464e-05
4.38614e-05
4.41689e-05
4.44677e-05
4.47569e-05
4.50361e-05
4.53049e-05
4.55622e-05
4.58078e-05
4.60417e-05
4.62637e-05
4.64735e-05
4.66712e-05
4.68568e-05
4.70304e-05
4.71924e-05
4.73433e-05
4.74834e-05
4.7613e-05
4.77325e-05
4.78423e-05
4.79425e-05
4.80335e-05
4.81159e-05
4.81903e-05
4.82566e-05
4.83153e-05
4.83669e-05
4.84117e-05
4.84501e-05
4.84826e-05
4.85088e-05
4.85291e-05
4.85434e-05
4.85519e-05
4.85546e-05
4.85515e-05
4.85429e-05
4.85286e-05
4.85083e-05
4.84821e-05
4.84496e-05
4.84108e-05
4.83653e-05
4.83131e-05
4.8254e-05
4.81878e-05
4.81138e-05
4.80317e-05
4.7941e-05
4.78411e-05
4.77319e-05
4.76131e-05
4.74839e-05
4.73439e-05
4.71932e-05
4.70312e-05
4.68578e-05
4.66727e-05
4.64756e-05
4.62665e-05
4.60453e-05
4.5812e-05
4.55667e-05
4.53097e-05
4.50413e-05
4.47621e-05
4.44725e-05
4.41734e-05
4.38654e-05
4.35497e-05
4.32273e-05
4.28998e-05
4.25684e-05
4.22348e-05
4.19014e-05
4.15704e-05
4.12449e-05
4.09289e-05
4.0627e-05
4.03458e-05
4.00949e-05
3.98878e-05
3.97439e-05
3.97002e-05
4.14727e-05
4.1527e-05
4.17178e-05
4.19939e-05
4.23292e-05
4.27057e-05
4.3111e-05
4.35362e-05
4.39748e-05
4.44215e-05
4.48726e-05
4.53249e-05
4.57757e-05
4.62222e-05
4.66624e-05
4.70944e-05
4.75167e-05
4.79279e-05
4.83267e-05
4.8712e-05
4.90831e-05
4.9439e-05
4.97793e-05
5.01032e-05
5.04105e-05
5.07016e-05
5.09764e-05
5.12349e-05
5.14773e-05
5.1704e-05
5.19151e-05
5.21113e-05
5.2293e-05
5.24606e-05
5.26148e-05
5.27559e-05
5.28844e-05
5.30011e-05
5.31064e-05
5.3201e-05
5.32854e-05
5.33596e-05
5.34239e-05
5.34789e-05
5.35249e-05
5.35621e-05
5.35909e-05
5.36113e-05
5.36234e-05
5.36274e-05
5.36233e-05
5.36111e-05
5.35907e-05
5.3562e-05
5.35247e-05
5.34787e-05
5.34238e-05
5.33595e-05
5.32856e-05
5.32016e-05
5.31071e-05
5.30015e-05
5.28843e-05
5.27555e-05
5.26145e-05
5.24605e-05
5.22931e-05
5.21115e-05
5.19154e-05
5.17042e-05
5.14777e-05
5.12353e-05
5.09768e-05
5.0702e-05
5.04107e-05
5.0103e-05
4.97789e-05
4.94388e-05
4.90829e-05
4.8712e-05
4.83266e-05
4.79278e-05
4.75166e-05
4.70941e-05
4.6662e-05
4.62218e-05
4.57755e-05
4.5325e-05
4.4873e-05
4.44221e-05
4.39756e-05
4.35373e-05
4.3112e-05
4.27066e-05
4.233e-05
4.19945e-05
4.17182e-05
4.15271e-05
4.14726e-05
4.33155e-05
4.33766e-05
4.36038e-05
4.39342e-05
4.43365e-05
4.4789e-05
4.52769e-05
4.57896e-05
4.63192e-05
4.68596e-05
4.74061e-05
4.79548e-05
4.85023e-05
4.90456e-05
4.95821e-05
5.01094e-05
5.06257e-05
5.11289e-05
5.16177e-05
5.20906e-05
5.25466e-05
5.29845e-05
5.34035e-05
5.38029e-05
5.41825e-05
5.45422e-05
5.4882e-05
5.52019e-05
5.55021e-05
5.57829e-05
5.60448e-05
5.62882e-05
5.65138e-05
5.6722e-05
5.69136e-05
5.7089e-05
5.72489e-05
5.7394e-05
5.7525e-05
5.76426e-05
5.77474e-05
5.78396e-05
5.79197e-05
5.79881e-05
5.80455e-05
5.80919e-05
5.81277e-05
5.81531e-05
5.81683e-05
5.81733e-05
5.81681e-05
5.81529e-05
5.81275e-05
5.80917e-05
5.80452e-05
5.79879e-05
5.79194e-05
5.78394e-05
5.77473e-05
5.76428e-05
5.75253e-05
5.7394e-05
5.72485e-05
5.70884e-05
5.69131e-05
5.67218e-05
5.65139e-05
5.62885e-05
5.60451e-05
5.57833e-05
5.55025e-05
5.52024e-05
5.48826e-05
5.45428e-05
5.4183e-05
5.38033e-05
5.34038e-05
5.29849e-05
5.25471e-05
5.20913e-05
5.16184e-05
5.11295e-05
5.06262e-05
5.01098e-05
4.95823e-05
4.90457e-05
4.85024e-05
4.7955e-05
4.74064e-05
4.686e-05
4.63198e-05
4.57903e-05
4.52776e-05
4.47897e-05
4.43371e-05
4.39346e-05
4.3604e-05
4.33766e-05
4.33154e-05
4.52303e-05
4.5296e-05
4.5552e-05
4.59263e-05
4.63831e-05
4.68976e-05
4.74531e-05
4.80375e-05
4.86419e-05
4.92593e-05
4.98844e-05
5.05129e-05
5.11407e-05
5.17644e-05
5.2381e-05
5.29877e-05
5.3582e-05
5.4162e-05
5.47258e-05
5.52717e-05
5.57984e-05
5.63045e-05
5.67893e-05
5.72516e-05
5.76912e-05
5.8108e-05
5.8502e-05
5.88732e-05
5.92218e-05
5.95481e-05
5.98526e-05
6.01357e-05
6.03981e-05
6.06404e-05
6.08635e-05
6.10679e-05
6.12544e-05
6.14237e-05
6.15766e-05
6.1714e-05
6.18366e-05
6.19445e-05
6.20383e-05
6.21184e-05
6.21854e-05
6.22396e-05
6.22815e-05
6.23112e-05
6.23289e-05
6.23348e-05
6.23289e-05
6.23111e-05
6.22814e-05
6.22395e-05
6.21853e-05
6.21184e-05
6.20384e-05
6.19449e-05
6.18374e-05
6.17153e-05
6.15779e-05
6.14245e-05
6.12546e-05
6.10679e-05
6.08635e-05
6.06405e-05
6.03982e-05
6.01358e-05
5.98527e-05
5.95483e-05
5.9222e-05
5.88734e-05
5.85021e-05
5.81078e-05
5.76907e-05
5.72506e-05
5.67881e-05
5.63033e-05
5.57972e-05
5.52706e-05
5.47247e-05
5.41609e-05
5.3581e-05
5.29866e-05
5.23801e-05
5.17638e-05
5.11404e-05
5.0513e-05
4.9885e-05
4.92601e-05
4.8643e-05
4.80388e-05
4.74543e-05
4.68986e-05
4.63839e-05
4.59269e-05
4.55523e-05
4.52961e-05
4.52303e-05
4.72192e-05
4.72881e-05
4.75673e-05
4.7978e-05
4.84807e-05
4.90475e-05
4.96601e-05
5.03052e-05
5.09728e-05
5.16556e-05
5.23473e-05
5.30432e-05
5.37391e-05
5.44308e-05
5.51152e-05
5.57891e-05
5.64498e-05
5.70949e-05
5.77225e-05
5.83305e-05
5.89174e-05
5.94818e-05
6.00226e-05
6.05387e-05
6.10297e-05
6.14955e-05
6.19359e-05
6.23511e-05
6.27411e-05
6.31063e-05
6.34472e-05
6.37642e-05
6.40581e-05
6.43297e-05
6.45797e-05
6.48088e-05
6.5018e-05
6.52079e-05
6.53795e-05
6.55336e-05
6.56711e-05
6.57921e-05
6.58974e-05
6.59873e-05
6.60625e-05
6.61234e-05
6.61704e-05
6.62037e-05
6.62237e-05
6.62303e-05
6.62236e-05
6.62037e-05
6.61703e-05
6.61233e-05
6.60624e-05
6.59873e-05
6.58975e-05
6.57926e-05
6.5672e-05
6.55349e-05
6.53808e-05
6.52088e-05
6.50183e-05
6.48089e-05
6.45797e-05
6.43298e-05
6.40582e-05
6.37643e-05
6.34473e-05
6.31064e-05
6.27413e-05
6.23512e-05
6.1936e-05
6.14953e-05
6.10291e-05
6.05376e-05
6.00213e-05
5.94805e-05
5.89161e-05
5.83293e-05
5.77213e-05
5.70937e-05
5.64486e-05
5.5788e-05
5.51143e-05
5.44301e-05
5.37387e-05
5.30434e-05
5.23479e-05
5.16564e-05
5.0974e-05
5.03065e-05
4.96613e-05
4.90486e-05
4.84816e-05
4.79787e-05
4.75677e-05
4.72883e-05
4.72192e-05
4.92843e-05
4.9355e-05
4.96536e-05
5.00958e-05
5.06382e-05
5.12505e-05
5.19128e-05
5.26109e-05
5.33338e-05
5.40735e-05
5.48235e-05
5.55784e-05
5.63337e-05
5.70849e-05
5.78287e-05
5.85614e-05
5.92801e-05
5.99821e-05
6.06655e-05
6.13278e-05
6.19673e-05
6.25826e-05
6.31724e-05
6.37354e-05
6.42714e-05
6.47799e-05
6.52609e-05
6.57144e-05
6.61406e-05
6.65398e-05
6.69125e-05
6.72592e-05
6.75808e-05
6.78779e-05
6.81514e-05
6.84023e-05
6.86313e-05
6.88394e-05
6.90273e-05
6.91961e-05
6.93466e-05
6.94792e-05
6.95947e-05
6.96933e-05
6.97756e-05
6.98424e-05
6.98939e-05
6.99305e-05
6.99523e-05
6.99596e-05
6.99523e-05
6.99305e-05
6.98939e-05
6.98424e-05
6.97757e-05
6.96933e-05
6.9595e-05
6.948e-05
6.93479e-05
6.91977e-05
6.90287e-05
6.88404e-05
6.86319e-05
6.84026e-05
6.81517e-05
6.78781e-05
6.75809e-05
6.72593e-05
6.69125e-05
6.65399e-05
6.61407e-05
6.57144e-05
6.52607e-05
6.47793e-05
6.42703e-05
6.37339e-05
6.31706e-05
6.25807e-05
6.19654e-05
6.13259e-05
6.06636e-05
5.99804e-05
5.92784e-05
5.85598e-05
5.78274e-05
5.7084e-05
5.63332e-05
5.55786e-05
5.48242e-05
5.40746e-05
5.33352e-05
5.26123e-05
5.19142e-05
5.12517e-05
5.06392e-05
5.00965e-05
4.96541e-05
4.93553e-05
4.92844e-05
5.14277e-05
5.14991e-05
5.18142e-05
5.22841e-05
5.28622e-05
5.35155e-05
5.42227e-05
5.49685e-05
5.57413e-05
5.65325e-05
5.73349e-05
5.8143e-05
5.89518e-05
5.97566e-05
6.05538e-05
6.13394e-05
6.21102e-05
6.28636e-05
6.35972e-05
6.43083e-05
6.49953e-05
6.56564e-05
6.62904e-05
6.68957e-05
6.74722e-05
6.80194e-05
6.85369e-05
6.9025e-05
6.94839e-05
6.99138e-05
7.03151e-05
7.06886e-05
7.1035e-05
7.13551e-05
7.16499e-05
7.19202e-05
7.2167e-05
7.23913e-05
7.25938e-05
7.27758e-05
7.29379e-05
7.30809e-05
7.32053e-05
7.33116e-05
7.34004e-05
7.34723e-05
7.35279e-05
7.35673e-05
7.35909e-05
7.35987e-05
7.35909e-05
7.35673e-05
7.35279e-05
7.34723e-05
7.34004e-05
7.33116e-05
7.32055e-05
7.30816e-05
7.29391e-05
7.27773e-05
7.25952e-05
7.23922e-05
7.21675e-05
7.19205e-05
7.16501e-05
7.13553e-05
7.10351e-05
7.06887e-05
7.03152e-05
6.99138e-05
6.9484e-05
6.90251e-05
6.85368e-05
6.80189e-05
6.74713e-05
6.68943e-05
6.62888e-05
6.56548e-05
6.49936e-05
6.43066e-05
6.35955e-05
6.2862e-05
6.21088e-05
6.1338e-05
6.05526e-05
5.97559e-05
5.89515e-05
5.81432e-05
5.73356e-05
5.65335e-05
5.57426e-05
5.49699e-05
5.42241e-05
5.35167e-05
5.28633e-05
5.22849e-05
5.18148e-05
5.14995e-05
5.14279e-05
5.36514e-05
5.37223e-05
5.4052e-05
5.45473e-05
5.51584e-05
5.58497e-05
5.65985e-05
5.73887e-05
5.82078e-05
5.90468e-05
5.98979e-05
6.07554e-05
6.16138e-05
6.24682e-05
6.33148e-05
6.41494e-05
6.49687e-05
6.57696e-05
6.65497e-05
6.73062e-05
6.80371e-05
6.87407e-05
6.94156e-05
7.00601e-05
7.06744e-05
7.12574e-05
7.1809e-05
7.23292e-05
7.28183e-05
7.32765e-05
7.37044e-05
7.41026e-05
7.4472e-05
7.48135e-05
7.51279e-05
7.54162e-05
7.56795e-05
7.59188e-05
7.61349e-05
7.63289e-05
7.65017e-05
7.66541e-05
7.67866e-05
7.69e-05
7.69947e-05
7.70715e-05
7.71308e-05
7.71729e-05
7.71981e-05
7.72065e-05
7.71981e-05
7.71729e-05
7.71308e-05
7.70715e-05
7.69947e-05
7.69e-05
7.67868e-05
7.66545e-05
7.65025e-05
7.63299e-05
7.61358e-05
7.59194e-05
7.56799e-05
7.54165e-05
7.51281e-05
7.48136e-05
7.44721e-05
7.41027e-05
7.37045e-05
7.32766e-05
7.28184e-05
7.23293e-05
7.18089e-05
7.12571e-05
7.06738e-05
7.00593e-05
6.94146e-05
6.87397e-05
6.8036e-05
6.73051e-05
6.65486e-05
6.57686e-05
6.49678e-05
6.41486e-05
6.33142e-05
6.24678e-05
6.16137e-05
6.07557e-05
5.98985e-05
5.90475e-05
5.82088e-05
5.73897e-05
5.65995e-05
5.58505e-05
5.51591e-05
5.45479e-05
5.40525e-05
5.37227e-05
5.36516e-05
5.59571e-05
5.60265e-05
5.63693e-05
5.68883e-05
5.75306e-05
5.8258e-05
5.90465e-05
5.98788e-05
6.07421e-05
6.16266e-05
6.25243e-05
6.34288e-05
6.43346e-05
6.52364e-05
6.61303e-05
6.70116e-05
6.7877e-05
6.87231e-05
6.95475e-05
7.03471e-05
7.11198e-05
7.18639e-05
7.25777e-05
7.32594e-05
7.39093e-05
7.45263e-05
7.51101e-05
7.56608e-05
7.61786e-05
7.66638e-05
7.71169e-05
7.75386e-05
7.79299e-05
7.82916e-05
7.86246e-05
7.89301e-05
7.92091e-05
7.94626e-05
7.96915e-05
7.98971e-05
8.00803e-05
8.02417e-05
8.03822e-05
8.05023e-05
8.06027e-05
8.06841e-05
8.07469e-05
8.07915e-05
8.08182e-05
8.08271e-05
8.08182e-05
8.07915e-05
8.07469e-05
8.06841e-05
8.06027e-05
8.05023e-05
8.03823e-05
8.02422e-05
8.00811e-05
7.98981e-05
7.96924e-05
7.94632e-05
7.92095e-05
7.89304e-05
7.86248e-05
7.82917e-05
7.793e-05
7.75387e-05
7.71169e-05
7.66638e-05
7.61787e-05
7.56609e-05
7.51101e-05
7.4526e-05
7.39087e-05
7.32586e-05
7.25767e-05
7.18628e-05
7.11187e-05
7.0346e-05
6.95464e-05
6.87221e-05
6.78761e-05
6.70108e-05
6.61296e-05
6.5236e-05
6.43345e-05
6.34291e-05
6.25249e-05
6.16274e-05
6.07431e-05
5.98799e-05
5.90474e-05
5.82588e-05
5.75314e-05
5.6889e-05
5.63699e-05
5.6027e-05
5.59574e-05
5.83466e-05
5.84136e-05
5.87684e-05
5.93101e-05
5.99825e-05
6.07449e-05
6.15719e-05
6.24454e-05
6.33517e-05
6.42805e-05
6.52235e-05
6.61738e-05
6.71257e-05
6.80735e-05
6.90133e-05
6.99401e-05
7.08504e-05
7.17405e-05
7.26081e-05
7.34496e-05
7.42629e-05
7.50462e-05
7.57978e-05
7.65157e-05
7.72003e-05
7.78503e-05
7.84655e-05
7.90458e-05
7.95915e-05
8.01029e-05
8.05805e-05
8.10251e-05
8.14375e-05
8.18188e-05
8.217e-05
8.24921e-05
8.27864e-05
8.30537e-05
8.32952e-05
8.35121e-05
8.37051e-05
8.38753e-05
8.40234e-05
8.41501e-05
8.4256e-05
8.43419e-05
8.44082e-05
8.44553e-05
8.44834e-05
8.44928e-05
8.44834e-05
8.44553e-05
8.44082e-05
8.43419e-05
8.42561e-05
8.41502e-05
8.40236e-05
8.38758e-05
8.37058e-05
8.35129e-05
8.3296e-05
8.30544e-05
8.27869e-05
8.24925e-05
8.21703e-05
8.1819e-05
8.14376e-05
8.10251e-05
8.05805e-05
8.01029e-05
7.95915e-05
7.90458e-05
7.84654e-05
7.785e-05
7.71997e-05
7.65149e-05
7.57969e-05
7.50452e-05
7.42618e-05
7.34484e-05
7.26069e-05
7.17395e-05
7.08495e-05
6.99393e-05
6.90127e-05
6.80732e-05
6.71256e-05
6.61741e-05
6.5224e-05
6.42812e-05
6.33525e-05
6.24462e-05
6.15727e-05
6.07456e-05
5.99832e-05
5.93107e-05
5.87689e-05
5.84141e-05
5.83469e-05
6.08215e-05
6.08851e-05
6.12511e-05
6.18148e-05
6.25168e-05
6.33136e-05
6.41787e-05
6.50928e-05
6.60416e-05
6.70143e-05
6.80021e-05
6.89978e-05
6.99953e-05
7.09888e-05
7.19741e-05
7.29459e-05
7.39006e-05
7.48343e-05
7.57444e-05
7.66274e-05
7.7481e-05
7.83031e-05
7.90922e-05
7.98458e-05
8.05647e-05
8.12474e-05
8.18936e-05
8.25032e-05
8.30764e-05
8.36137e-05
8.41155e-05
8.45827e-05
8.50162e-05
8.54169e-05
8.5786e-05
8.61245e-05
8.64338e-05
8.67148e-05
8.69687e-05
8.71966e-05
8.73996e-05
8.75784e-05
8.77341e-05
8.78673e-05
8.79786e-05
8.80689e-05
8.81386e-05
8.81881e-05
8.82177e-05
8.82275e-05
8.82177e-05
8.81881e-05
8.81386e-05
8.8069e-05
8.79787e-05
8.78673e-05
8.77343e-05
8.75789e-05
8.74003e-05
8.71975e-05
8.69695e-05
8.67155e-05
8.64343e-05
8.6125e-05
8.57863e-05
8.54171e-05
8.50163e-05
8.45827e-05
8.41155e-05
8.36137e-05
8.30765e-05
8.25032e-05
8.18935e-05
8.12471e-05
8.05642e-05
7.9845e-05
7.90912e-05
7.83021e-05
7.74799e-05
7.66262e-05
7.57433e-05
7.48332e-05
7.38997e-05
7.29451e-05
7.19735e-05
7.09885e-05
6.99953e-05
6.89981e-05
6.80026e-05
6.7015e-05
6.60424e-05
6.50936e-05
6.41795e-05
6.33143e-05
6.25174e-05
6.18153e-05
6.12515e-05
6.08856e-05
6.08217e-05
6.33831e-05
6.34426e-05
6.38191e-05
6.44044e-05
6.51357e-05
6.5967e-05
6.68701e-05
6.78249e-05
6.88163e-05
6.98329e-05
7.08656e-05
7.19068e-05
7.295e-05
7.39892e-05
7.502e-05
7.6037e-05
7.70362e-05
7.80135e-05
7.89664e-05
7.9891e-05
8.07849e-05
8.1646e-05
8.24725e-05
8.3262e-05
8.40153e-05
8.47308e-05
8.5408e-05
8.6047e-05
8.66479e-05
8.72111e-05
8.77372e-05
8.8227e-05
8.86815e-05
8.91017e-05
8.94887e-05
8.98438e-05
9.01681e-05
9.04629e-05
9.07291e-05
9.09681e-05
9.11809e-05
9.13685e-05
9.15317e-05
9.16713e-05
9.17881e-05
9.18828e-05
9.19559e-05
9.20078e-05
9.20389e-05
9.20492e-05
9.20389e-05
9.20079e-05
9.1956e-05
9.18829e-05
9.17882e-05
9.16714e-05
9.15319e-05
9.13688e-05
9.11815e-05
9.09688e-05
9.07298e-05
9.04635e-05
9.01687e-05
8.98443e-05
8.94891e-05
8.91019e-05
8.86816e-05
8.8227e-05
8.77372e-05
8.72111e-05
8.66479e-05
8.6047e-05
8.54079e-05
8.47305e-05
8.40148e-05
8.32613e-05
8.24717e-05
8.1645e-05
8.07838e-05
7.98899e-05
7.89653e-05
7.80125e-05
7.70353e-05
7.60363e-05
7.50195e-05
7.3989e-05
7.295e-05
7.1907e-05
7.0866e-05
6.98335e-05
6.88169e-05
6.78256e-05
6.68707e-05
6.59675e-05
6.51362e-05
6.44047e-05
6.38193e-05
6.3443e-05
6.33833e-05
6.60331e-05
6.60873e-05
6.64737e-05
6.70803e-05
6.78412e-05
6.87071e-05
6.96485e-05
7.06443e-05
7.16787e-05
7.27398e-05
7.38179e-05
7.49051e-05
7.59946e-05
7.708e-05
7.8157e-05
7.92197e-05
8.02639e-05
8.12853e-05
8.22815e-05
8.32481e-05
8.41828e-05
8.50833e-05
8.59478e-05
8.67736e-05
8.75617e-05
8.83103e-05
8.9019e-05
8.96877e-05
9.03166e-05
9.0906e-05
9.14567e-05
9.19695e-05
9.24452e-05
9.28851e-05
9.32902e-05
9.3662e-05
9.40016e-05
9.43102e-05
9.4589e-05
9.48392e-05
9.5062e-05
9.52583e-05
9.54292e-05
9.55754e-05
9.56977e-05
9.57968e-05
9.58734e-05
9.59278e-05
9.59603e-05
9.59711e-05
9.59603e-05
9.59278e-05
9.58735e-05
9.57969e-05
9.56978e-05
9.55755e-05
9.54294e-05
9.52587e-05
9.50625e-05
9.48399e-05
9.45896e-05
9.43108e-05
9.40021e-05
9.36625e-05
9.32907e-05
9.28853e-05
9.24453e-05
9.19695e-05
9.14567e-05
9.0906e-05
9.03165e-05
8.96876e-05
8.90189e-05
8.831e-05
8.75613e-05
8.67729e-05
8.5947e-05
8.50824e-05
8.41818e-05
8.3247e-05
8.22803e-05
8.12843e-05
8.0263e-05
7.92189e-05
7.81565e-05
7.70798e-05
7.59946e-05
7.49053e-05
7.38183e-05
7.27403e-05
7.16793e-05
7.06449e-05
6.9649e-05
6.87075e-05
6.78416e-05
6.70805e-05
6.64738e-05
6.60875e-05
6.60331e-05
6.87724e-05
6.88204e-05
6.92161e-05
6.98441e-05
7.06347e-05
7.15356e-05
7.25159e-05
7.35535e-05
7.46316e-05
7.57379e-05
7.68621e-05
7.79961e-05
7.91327e-05
8.02652e-05
8.13891e-05
8.24983e-05
8.35884e-05
8.46548e-05
8.56951e-05
8.67046e-05
8.76808e-05
8.86215e-05
8.95247e-05
9.03874e-05
9.1211e-05
9.19934e-05
9.27342e-05
9.34331e-05
9.40905e-05
9.47068e-05
9.52825e-05
9.58186e-05
9.6316e-05
9.67759e-05
9.71995e-05
9.75883e-05
9.79434e-05
9.82661e-05
9.85577e-05
9.88194e-05
9.90523e-05
9.92576e-05
9.94362e-05
9.95891e-05
9.9717e-05
9.98207e-05
9.99007e-05
9.99576e-05
9.99916e-05
0.000100003
9.99917e-05
9.99577e-05
9.99008e-05
9.98208e-05
9.97171e-05
9.95892e-05
9.94364e-05
9.92579e-05
9.90528e-05
9.88199e-05
9.85583e-05
9.82667e-05
9.7944e-05
9.75889e-05
9.72001e-05
9.67762e-05
9.63161e-05
9.58185e-05
9.52824e-05
9.47067e-05
9.40904e-05
9.3433e-05
9.2734e-05
9.19931e-05
9.12106e-05
9.03868e-05
8.95239e-05
8.86207e-05
8.76798e-05
8.67035e-05
8.56939e-05
8.46538e-05
8.35875e-05
8.24976e-05
8.13887e-05
8.0265e-05
7.91327e-05
7.79963e-05
7.68625e-05
7.57383e-05
7.4632e-05
7.35539e-05
7.25163e-05
7.15359e-05
7.06349e-05
6.98441e-05
6.92161e-05
6.88204e-05
6.87724e-05
7.16021e-05
7.16427e-05
7.20474e-05
7.26966e-05
7.35173e-05
7.44538e-05
7.54738e-05
7.65538e-05
7.76765e-05
7.8829e-05
8.00004e-05
8.11822e-05
8.2367e-05
8.35478e-05
8.47198e-05
8.58765e-05
8.70135e-05
8.81259e-05
8.92113e-05
9.02647e-05
9.12835e-05
9.22653e-05
9.32081e-05
9.41086e-05
9.49686e-05
9.57856e-05
9.65591e-05
9.72891e-05
9.79757e-05
9.86193e-05
9.92207e-05
9.97806e-05
0.0001003
0.000100781
0.000101223
0.000101629
0.000102
0.000102338
0.000102642
0.000102916
0.000103159
0.000103373
0.00010356
0.00010372
0.000103853
0.000103962
0.000104045
0.000104105
0.00010414
0.000104152
0.00010414
0.000104105
0.000104045
0.000103962
0.000103853
0.00010372
0.00010356
0.000103374
0.000103159
0.000102916
0.000102643
0.000102338
0.000102001
0.00010163
0.000101224
0.000100781
0.0001003
9.97806e-05
9.92206e-05
9.86193e-05
9.79756e-05
9.7289e-05
9.65589e-05
9.57853e-05
9.49682e-05
9.41081e-05
9.32074e-05
9.22645e-05
9.12825e-05
9.02636e-05
8.92102e-05
8.81249e-05
8.70126e-05
8.58758e-05
8.47193e-05
8.35476e-05
8.23671e-05
8.11825e-05
8.00008e-05
7.88294e-05
7.7677e-05
7.65543e-05
7.54741e-05
7.44541e-05
7.35175e-05
7.26966e-05
7.20473e-05
7.16426e-05
7.16021e-05
7.45232e-05
7.4555e-05
7.49682e-05
7.56387e-05
7.649e-05
7.74628e-05
7.85232e-05
7.96467e-05
8.08151e-05
8.20149e-05
8.32347e-05
8.44656e-05
8.56998e-05
8.69299e-05
8.81512e-05
8.93567e-05
9.05418e-05
9.17015e-05
9.28331e-05
9.39316e-05
9.49942e-05
9.60183e-05
9.70017e-05
9.79411e-05
9.88384e-05
9.96909e-05
0.000100498
0.00010126
0.000101977
0.000102648
0.000103276
0.000103861
0.000104403
0.000104905
0.000105367
0.00010579
0.000106178
0.00010653
0.000106848
0.000107133
0.000107387
0.000107611
0.000107806
0.000107972
0.000108112
0.000108225
0.000108312
0.000108374
0.000108411
0.000108424
0.000108411
0.000108374
0.000108312
0.000108225
0.000108112
0.000107972
0.000107806
0.000107611
0.000107387
0.000107133
0.000106848
0.00010653
0.000106178
0.000105791
0.000105367
0.000104905
0.000104403
0.000103861
0.000103276
0.000102648
0.000101977
0.00010126
0.000100498
9.96907e-05
9.88381e-05
9.79406e-05
9.70012e-05
9.60176e-05
9.49933e-05
9.39307e-05
9.28322e-05
9.17006e-05
9.05411e-05
8.93562e-05
8.81508e-05
8.69297e-05
8.56998e-05
8.44658e-05
8.3235e-05
8.20153e-05
8.08155e-05
7.96471e-05
7.85235e-05
7.7463e-05
7.64901e-05
7.56387e-05
7.49681e-05
7.45549e-05
7.45231e-05
7.75362e-05
7.75579e-05
7.79791e-05
7.8671e-05
7.95534e-05
8.05632e-05
8.1665e-05
8.2833e-05
8.40483e-05
8.52965e-05
8.6566e-05
8.78472e-05
8.91321e-05
9.0413e-05
9.1685e-05
9.29407e-05
9.41754e-05
9.53836e-05
9.65629e-05
9.77077e-05
9.88153e-05
9.98829e-05
0.000100908
0.000101888
0.000102823
0.000103712
0.000104554
0.000105349
0.000106096
0.000106797
0.000107452
0.000108062
0.000108627
0.000109151
0.000109633
0.000110075
0.000110479
0.000110846
0.000111178
0.000111475
0.00011174
0.000111974
0.000112177
0.000112351
0.000112497
0.000112615
0.000112706
0.00011277
0.000112809
0.000112822
0.000112809
0.00011277
0.000112706
0.000112615
0.000112497
0.000112351
0.000112177
0.000111974
0.000111741
0.000111476
0.000111178
0.000110847
0.000110479
0.000110075
0.000109633
0.000109151
0.000108628
0.000108062
0.000107452
0.000106797
0.000106096
0.000105349
0.000104554
0.000103712
0.000102823
0.000101887
0.000100908
9.98822e-05
9.88145e-05
9.77068e-05
9.6562e-05
9.53828e-05
9.41747e-05
9.29402e-05
9.16847e-05
9.04129e-05
8.91322e-05
8.78474e-05
8.65663e-05
8.52969e-05
8.40486e-05
8.28334e-05
8.16653e-05
8.05634e-05
7.95535e-05
7.8671e-05
7.7979e-05
7.75578e-05
7.75361e-05
8.06416e-05
8.06517e-05
8.10804e-05
8.17937e-05
8.27077e-05
8.37553e-05
8.48994e-05
8.61132e-05
8.73765e-05
8.86746e-05
8.99951e-05
9.13281e-05
9.26652e-05
9.39983e-05
9.53224e-05
9.66298e-05
9.79154e-05
9.91736e-05
0.000100402
0.000101595
0.000102748
0.000103861
0.000104929
0.00010595
0.000106925
0.000107852
0.00010873
0.000109558
0.000110337
0.000111068
0.00011175
0.000112386
0.000112976
0.000113522
0.000114024
0.000114486
0.000114907
0.00011529
0.000115635
0.000115946
0.000116222
0.000116465
0.000116677
0.000116859
0.00011701
0.000117133
0.000117228
0.000117296
0.000117336
0.000117349
0.000117336
0.000117296
0.000117228
0.000117133
0.00011701
0.000116859
0.000116677
0.000116466
0.000116222
0.000115946
0.000115636
0.00011529
0.000114907
0.000114486
0.000114025
0.000113522
0.000112976
0.000112386
0.00011175
0.000111068
0.000110337
0.000109558
0.000108729
0.000107852
0.000106925
0.000105949
0.000104929
0.00010386
0.000102748
0.000101594
0.000100401
9.9173e-05
9.79148e-05
9.66294e-05
9.53222e-05
9.39981e-05
9.26652e-05
9.13282e-05
8.99953e-05
8.86748e-05
8.73767e-05
8.61135e-05
8.48997e-05
8.37555e-05
8.27078e-05
8.17937e-05
8.10804e-05
8.06516e-05
8.06415e-05
8.38395e-05
8.38365e-05
8.42721e-05
8.50069e-05
8.5953e-05
8.70392e-05
8.82267e-05
8.94872e-05
9.07999e-05
9.21491e-05
9.35221e-05
9.49083e-05
9.62992e-05
9.7686e-05
9.90639e-05
0.000100424
0.000101763
0.000103072
0.000104351
0.000105593
0.000106795
0.000107953
0.000109066
0.000110129
0.000111145
0.000112111
0.000113025
0.000113888
0.0001147
0.000115462
0.000116173
0.000116836
0.000117451
0.000118019
0.000118543
0.000119024
0.000119463
0.000119862
0.000120222
0.000120545
0.000120833
0.000121087
0.000121308
0.000121497
0.000121655
0.000121783
0.000121882
0.000121952
0.000121994
0.000122008
0.000121994
0.000121952
0.000121882
0.000121783
0.000121655
0.000121497
0.000121308
0.000121087
0.000120834
0.000120546
0.000120222
0.000119862
0.000119463
0.000119024
0.000118543
0.00011802
0.000117451
0.000116836
0.000116173
0.000115462
0.0001147
0.000113888
0.000113025
0.000112111
0.000111145
0.000110129
0.000109066
0.000107953
0.000106794
0.000105592
0.000104351
0.000103072
0.000101762
0.000100424
9.90636e-05
9.76859e-05
9.62992e-05
9.49085e-05
9.35223e-05
9.21494e-05
9.08001e-05
8.94876e-05
8.8227e-05
8.70394e-05
8.59531e-05
8.50069e-05
8.42721e-05
8.38365e-05
8.38395e-05
8.71299e-05
8.7112e-05
8.75538e-05
8.83101e-05
8.92888e-05
9.04146e-05
9.16464e-05
9.2955e-05
9.43183e-05
9.57202e-05
9.7147e-05
9.85881e-05
0.000100034
0.000101476
0.00010291
0.000104325
0.000105717
0.00010708
0.000108411
0.000109704
0.000110955
0.000112161
0.00011332
0.000114426
0.000115484
0.00011649
0.000117442
0.000118341
0.000119187
0.00011998
0.000120721
0.000121411
0.000122052
0.000122644
0.00012319
0.00012369
0.000124148
0.000124563
0.000124939
0.000125275
0.000125575
0.000125839
0.000126069
0.000126266
0.000126431
0.000126564
0.000126667
0.00012674
0.000126784
0.000126799
0.000126784
0.000126741
0.000126667
0.000126564
0.000126431
0.000126266
0.000126069
0.00012584
0.000125575
0.000125276
0.000124939
0.000124563
0.000124148
0.000123691
0.00012319
0.000122644
0.000122052
0.000121411
0.000120721
0.00011998
0.000119187
0.000118341
0.000117442
0.00011649
0.000115484
0.000114426
0.000113319
0.00011216
0.000110954
0.000109703
0.00010841
0.000107079
0.000105717
0.000104325
0.000102909
0.000101476
0.000100034
9.85882e-05
9.71471e-05
9.57203e-05
9.43185e-05
9.29552e-05
9.16466e-05
9.04148e-05
8.9289e-05
8.83102e-05
8.75539e-05
8.7112e-05
8.71299e-05
9.05123e-05
9.04777e-05
9.0925e-05
9.17028e-05
9.27147e-05
9.38807e-05
9.51579e-05
9.65157e-05
9.7931e-05
9.93869e-05
0.000100869
0.000102367
0.00010387
0.000105369
0.000106859
0.000108331
0.000109779
0.000111196
0.000112581
0.000113926
0.000115228
0.000116483
0.000117689
0.000118841
0.000119942
0.000120989
0.000121981
0.000122917
0.000123797
0.000124623
0.000125395
0.000126113
0.00012678
0.000127397
0.000127965
0.000128486
0.000128962
0.000129395
0.000129785
0.000130136
0.000130448
0.000130723
0.000130963
0.000131167
0.000131339
0.000131478
0.000131585
0.000131661
0.000131707
0.000131722
0.000131707
0.000131661
0.000131585
0.000131478
0.000131339
0.000131167
0.000130963
0.000130723
0.000130448
0.000130136
0.000129786
0.000129395
0.000128962
0.000128486
0.000127965
0.000127397
0.00012678
0.000126113
0.000125395
0.000124623
0.000123797
0.000122917
0.000121981
0.000120989
0.000119942
0.00011884
0.000117689
0.000116482
0.000115227
0.000113925
0.00011258
0.000111196
0.000109778
0.00010833
0.000106859
0.000105369
0.00010387
0.000102367
0.000100869
9.93871e-05
9.79312e-05
9.6516e-05
9.51582e-05
9.38809e-05
9.27149e-05
9.17029e-05
9.09251e-05
9.04778e-05
9.05124e-05
9.39861e-05
9.39328e-05
9.43848e-05
9.51839e-05
9.62295e-05
9.74365e-05
9.87602e-05
0.000100168
0.000101637
0.000103149
0.000104688
0.000106243
0.000107805
0.000109362
0.000110911
0.000112441
0.000113947
0.000115421
0.000116861
0.00011826
0.000119614
0.000120919
0.000122174
0.000123372
0.000124519
0.000125608
0.00012664
0.000127614
0.000128531
0.00012939
0.000130193
0.000130941
0.000131635
0.000132277
0.000132868
0.00013341
0.000133905
0.000134355
0.000134762
0.000135127
0.000135452
0.000135738
0.000135987
0.0001362
0.000136378
0.000136523
0.000136634
0.000136714
0.000136761
0.000136777
0.000136761
0.000136714
0.000136634
0.000136523
0.000136378
0.0001362
0.000135987
0.000135738
0.000135452
0.000135127
0.000134762
0.000134356
0.000133906
0.00013341
0.000132868
0.000132277
0.000131635
0.000130941
0.000130193
0.00012939
0.00012853
0.000127614
0.00012664
0.000125608
0.000124518
0.000123372
0.000122174
0.000120919
0.000119613
0.000118259
0.00011686
0.00011542
0.000113946
0.000112441
0.000110911
0.000109362
0.000107805
0.000106243
0.000104688
0.000103149
0.000101637
0.000100169
9.87604e-05
9.74366e-05
9.62296e-05
9.5184e-05
9.43849e-05
9.39329e-05
9.39861e-05
9.755e-05
9.7476e-05
9.79317e-05
9.87521e-05
9.98318e-05
0.000101081
0.000102452
0.000103912
0.000105435
0.000107003
0.000108601
0.000110216
0.000111838
0.000113456
0.000115065
0.000116655
0.00011822
0.000119752
0.000121249
0.000122703
0.000124111
0.000125469
0.000126774
0.00012802
0.000129212
0.000130346
0.000131419
0.000132432
0.000133386
0.00013428
0.000135115
0.000135893
0.000136615
0.000137282
0.000137897
0.000138461
0.000138977
0.000139445
0.000139868
0.000140247
0.000140585
0.000140882
0.000141141
0.000141363
0.000141548
0.000141698
0.000141814
0.000141897
0.000141946
0.000141963
0.000141946
0.000141897
0.000141815
0.000141699
0.000141548
0.000141363
0.000141141
0.000140882
0.000140585
0.000140247
0.000139868
0.000139445
0.000138977
0.000138462
0.000137898
0.000137283
0.000136615
0.000135893
0.000135115
0.000134279
0.000133386
0.000132432
0.000131419
0.000130345
0.000129212