/*--------------------------------*- C++ -*----------------------------------*\
  =========                 |
  \\      /  F ield         | OpenFOAM: The Open Source CFD Toolbox
   \\    /   O peration     | Website:  https://openfoam.org
    \\  /    A nd           | Version:  8
     \\/     M anipulation  |
\*---------------------------------------------------------------------------*/
FoamFile
{
    version     2.0;
    format      ascii;
    class       volScalarField;
    location    "10000";
    object      epsilon_0;
}
// * * * * * * * * * * * * * * * * * * * * * * * * * * * * * * * * * * * * * //

dimensions      [0 2 -3 0 0 0 0];

internalField   nonuniform List<scalar> 
14751
(
2.77102e-09
2.87497e-09
2.98834e-09
3.10061e-09
3.21642e-09
3.33468e-09
3.45355e-09
3.57507e-09
3.69788e-09
3.82349e-09
3.9506e-09
4.08036e-09
4.21185e-09
4.34446e-09
4.47897e-09
4.61456e-09
4.75169e-09
4.88905e-09
5.02776e-09
5.16705e-09
5.30783e-09
5.44976e-09
5.59292e-09
5.73711e-09
5.88316e-09
6.03077e-09
6.17972e-09
6.33018e-09
6.48166e-09
6.63442e-09
6.78853e-09
6.94388e-09
7.10046e-09
7.25803e-09
7.41641e-09
7.57565e-09
7.73494e-09
7.89446e-09
8.0536e-09
8.21235e-09
8.36966e-09
8.52565e-09
8.68046e-09
8.83279e-09
8.98271e-09
9.12942e-09
9.27228e-09
9.41081e-09
9.54398e-09
9.67102e-09
9.79103e-09
9.90293e-09
1.00057e-08
1.0098e-08
1.01784e-08
1.02453e-08
1.02976e-08
1.03331e-08
1.03456e-08
1.03296e-08
1.02804e-08
1.01906e-08
1.00531e-08
9.86027e-09
9.60383e-09
9.27903e-09
8.88348e-09
8.41915e-09
7.89232e-09
7.3162e-09
6.70888e-09
6.09146e-09
5.4861e-09
4.9125e-09
4.38629e-09
3.9177e-09
3.51139e-09
3.16717e-09
2.88181e-09
2.65033e-09
2.46616e-09
2.32176e-09
2.21155e-09
2.12889e-09
2.06981e-09
2.03052e-09
2.00853e-09
2.0019e-09
2.00912e-09
2.02893e-09
2.06058e-09
2.10313e-09
2.1562e-09
2.21945e-09
2.29185e-09
2.37375e-09
2.46269e-09
2.55785e-09
2.65833e-09
1.43877e-08
1.48971e-08
1.54545e-08
1.60066e-08
1.65771e-08
1.71594e-08
1.77437e-08
1.83373e-08
1.89366e-08
1.95474e-08
2.0165e-08
2.0794e-08
2.1431e-08
2.20738e-08
2.27257e-08
2.33834e-08
2.40482e-08
2.47145e-08
2.53871e-08
2.6063e-08
2.67458e-08
2.74341e-08
2.81283e-08
2.88278e-08
2.95362e-08
3.02517e-08
3.09737e-08
3.17027e-08
3.24368e-08
3.31772e-08
3.39244e-08
3.46779e-08
3.54376e-08
3.62026e-08
3.69719e-08
3.77455e-08
3.852e-08
3.92964e-08
4.00719e-08
4.08458e-08
4.16138e-08
4.23769e-08
4.31355e-08
4.38842e-08
4.46228e-08
4.53476e-08
4.60555e-08
4.67441e-08
4.74088e-08
4.8046e-08
4.86511e-08
4.9219e-08
4.97449e-08
5.02218e-08
5.06423e-08
5.0999e-08
5.12845e-08
5.14876e-08
5.15782e-08
5.15303e-08
5.132e-08
5.09112e-08
5.02678e-08
4.93523e-08
4.8125e-08
4.65619e-08
4.465e-08
4.23965e-08
3.98303e-08
3.70127e-08
3.40297e-08
3.09834e-08
2.79829e-08
2.51284e-08
2.25019e-08
2.01599e-08
1.81302e-08
1.64126e-08
1.49894e-08
1.38337e-08
1.2912e-08
1.21864e-08
1.16302e-08
1.12114e-08
1.0911e-08
1.07104e-08
1.05976e-08
1.05627e-08
1.05981e-08
1.06973e-08
1.08561e-08
1.10697e-08
1.13358e-08
1.16522e-08
1.20132e-08
1.24205e-08
1.28617e-08
1.33333e-08
1.38308e-08
3.49432e-08
3.61125e-08
3.74322e-08
3.87751e-08
4.01936e-08
4.16642e-08
4.31558e-08
4.46888e-08
4.62491e-08
4.78352e-08
4.94512e-08
5.11065e-08
5.2796e-08
5.45133e-08
5.6265e-08
5.80449e-08
5.98522e-08
6.16745e-08
6.35213e-08
6.53862e-08
6.72751e-08
6.91845e-08
7.11145e-08
7.3064e-08
7.50396e-08
7.70375e-08
7.90562e-08
8.10958e-08
8.31524e-08
8.52283e-08
8.73243e-08
8.9439e-08
9.15719e-08
9.37206e-08
9.58823e-08
9.80557e-08
1.00234e-07
1.02418e-07
1.04601e-07
1.0678e-07
1.08946e-07
1.11098e-07
1.13238e-07
1.15353e-07
1.17439e-07
1.19487e-07
1.21488e-07
1.23433e-07
1.25313e-07
1.27117e-07
1.28832e-07
1.30444e-07
1.31939e-07
1.33297e-07
1.34497e-07
1.35516e-07
1.36331e-07
1.36909e-07
1.37169e-07
1.37042e-07
1.36458e-07
1.35321e-07
1.33532e-07
1.30991e-07
1.27596e-07
1.23287e-07
1.18037e-07
1.11878e-07
1.04902e-07
9.72888e-08
8.92772e-08
8.11443e-08
7.31768e-08
6.56318e-08
5.87179e-08
5.2578e-08
4.72789e-08
4.28123e-08
3.91184e-08
3.60981e-08
3.36738e-08
3.17433e-08
3.0239e-08
2.90803e-08
2.82193e-08
2.76086e-08
2.72166e-08
2.70177e-08
2.69916e-08
2.71203e-08
2.73921e-08
2.77933e-08
2.83177e-08
2.89602e-08
2.97079e-08
3.05682e-08
3.15153e-08
3.25499e-08
3.3667e-08
7.08031e-08
7.31398e-08
7.58875e-08
7.87743e-08
8.18949e-08
8.51786e-08
8.85343e-08
9.20052e-08
9.55495e-08
9.91611e-08
1.02837e-07
1.06571e-07
1.10352e-07
1.1419e-07
1.18095e-07
1.22063e-07
1.2608e-07
1.30127e-07
1.34218e-07
1.38341e-07
1.42501e-07
1.46689e-07
1.50904e-07
1.55142e-07
1.59409e-07
1.63699e-07
1.68009e-07
1.72335e-07
1.76673e-07
1.81024e-07
1.85389e-07
1.89764e-07
1.9415e-07
1.98541e-07
2.02932e-07
2.07321e-07
2.11698e-07
2.16068e-07
2.20417e-07
2.24738e-07
2.29021e-07
2.33263e-07
2.37456e-07
2.41592e-07
2.45669e-07
2.49672e-07
2.53587e-07
2.57402e-07
2.61099e-07
2.64662e-07
2.68071e-07
2.71299e-07
2.74324e-07
2.77111e-07
2.7962e-07
2.81808e-07
2.8362e-07
2.8499e-07
2.85794e-07
2.85903e-07
2.85183e-07
2.8346e-07
2.80542e-07
2.76232e-07
2.70321e-07
2.62648e-07
2.53107e-07
2.41678e-07
2.2846e-07
2.13712e-07
1.97838e-07
1.81355e-07
1.64844e-07
1.48872e-07
1.33929e-07
1.20374e-07
1.08413e-07
9.80982e-08
8.93767e-08
8.21023e-08
7.61193e-08
7.12415e-08
6.73651e-08
6.43018e-08
6.19396e-08
6.01603e-08
5.88832e-08
5.80437e-08
5.75904e-08
5.74768e-08
5.76728e-08
5.81437e-08
5.88761e-08
5.98603e-08
6.10718e-08
6.25369e-08
6.42109e-08
6.61176e-08
6.8262e-08
1.27493e-07
1.31111e-07
1.35541e-07
1.40301e-07
1.45519e-07
1.51047e-07
1.56679e-07
1.62486e-07
1.68378e-07
1.74329e-07
1.80325e-07
1.8635e-07
1.92377e-07
1.98398e-07
2.04399e-07
2.10353e-07
2.1628e-07
2.22158e-07
2.27995e-07
2.33783e-07
2.39511e-07
2.45174e-07
2.50768e-07
2.56292e-07
2.61752e-07
2.67146e-07
2.72475e-07
2.77742e-07
2.82948e-07
2.88098e-07
2.93198e-07
2.98253e-07
3.03266e-07
3.08242e-07
3.13178e-07
3.18078e-07
3.22937e-07
3.27755e-07
3.3254e-07
3.37293e-07
3.42009e-07
3.46689e-07
3.5133e-07
3.55929e-07
3.60488e-07
3.64998e-07
3.69451e-07
3.73837e-07
3.78146e-07
3.82364e-07
3.86474e-07
3.90455e-07
3.94286e-07
3.97936e-07
4.01365e-07
4.04528e-07
4.07362e-07
4.09794e-07
4.1173e-07
4.13051e-07
4.13623e-07
4.13279e-07
4.11825e-07
4.09046e-07
4.04702e-07
3.98554e-07
3.90373e-07
3.79967e-07
3.67208e-07
3.52081e-07
3.34725e-07
3.15451e-07
2.94764e-07
2.73326e-07
2.51892e-07
2.31206e-07
2.1189e-07
1.94366e-07
1.78863e-07
1.65401e-07
1.53916e-07
1.44212e-07
1.3611e-07
1.29448e-07
1.24099e-07
1.1985e-07
1.16555e-07
1.14094e-07
1.12369e-07
1.11285e-07
1.10778e-07
1.10777e-07
1.11251e-07
1.12186e-07
1.13533e-07
1.15357e-07
1.17584e-07
1.2029e-07
1.23499e-07
1.96314e-07
2.00128e-07
2.04986e-07
2.10234e-07
2.1597e-07
2.21981e-07
2.27956e-07
2.33971e-07
2.39909e-07
2.45731e-07
2.51421e-07
2.56971e-07
2.62358e-07
2.67579e-07
2.7264e-07
2.7753e-07
2.82277e-07
2.86869e-07
2.91325e-07
2.95644e-07
2.99853e-07
3.03964e-07
3.07987e-07
3.11932e-07
3.15812e-07
3.19637e-07
3.23418e-07
3.27164e-07
3.30884e-07
3.34587e-07
3.3828e-07
3.41971e-07
3.45666e-07
3.49368e-07
3.53084e-07
3.56821e-07
3.60578e-07
3.64357e-07
3.68163e-07
3.71999e-07
3.75864e-07
3.79758e-07
3.83679e-07
3.87625e-07
3.91598e-07
3.95593e-07
3.99604e-07
4.03627e-07
4.07653e-07
4.11673e-07
4.15675e-07
4.19643e-07
4.23562e-07
4.27409e-07
4.31156e-07
4.34766e-07
4.38193e-07
4.41378e-07
4.4426e-07
4.46762e-07
4.48789e-07
4.50231e-07
4.50953e-07
4.50805e-07
4.49615e-07
4.47202e-07
4.43379e-07
4.37967e-07
4.30808e-07
4.21785e-07
4.10851e-07
3.98047e-07
3.83532e-07
3.67581e-07
3.50588e-07
3.33025e-07
3.15394e-07
2.98166e-07
2.81749e-07
2.66433e-07
2.52436e-07
2.3983e-07
2.28668e-07
2.1892e-07
2.10507e-07
2.03395e-07
1.97508e-07
1.92742e-07
1.88997e-07
1.86154e-07
1.84134e-07
1.82831e-07
1.82206e-07
1.82236e-07
1.82845e-07
1.84137e-07
1.86e-07
1.88573e-07
1.91884e-07
2.49759e-07
2.52001e-07
2.5504e-07
2.58327e-07
2.6188e-07
2.65551e-07
2.69062e-07
2.72485e-07
2.7575e-07
2.7884e-07
2.81766e-07
2.84542e-07
2.87175e-07
2.89681e-07
2.92084e-07
2.94392e-07
2.96636e-07
2.98822e-07
3.00969e-07
3.03089e-07
3.052e-07
3.07318e-07
3.09452e-07
3.11612e-07
3.13806e-07
3.16044e-07
3.18331e-07
3.20673e-07
3.23074e-07
3.25537e-07
3.28068e-07
3.30667e-07
3.33336e-07
3.36078e-07
3.38894e-07
3.41787e-07
3.44754e-07
3.47796e-07
3.50913e-07
3.54106e-07
3.57373e-07
3.60711e-07
3.6412e-07
3.67596e-07
3.71138e-07
3.74744e-07
3.78408e-07
3.82125e-07
3.85891e-07
3.89696e-07
3.93533e-07
3.9739e-07
4.01253e-07
4.05108e-07
4.08932e-07
4.12699e-07
4.16376e-07
4.19923e-07
4.2329e-07
4.26421e-07
4.29251e-07
4.31706e-07
4.33692e-07
4.35108e-07
4.35837e-07
4.35754e-07
4.34734e-07
4.32657e-07
4.29416e-07
4.24927e-07
4.19147e-07
4.12082e-07
4.03798e-07
3.94421e-07
3.84134e-07
3.73167e-07
3.61769e-07
3.50189e-07
3.38662e-07
3.27389e-07
3.16552e-07
3.06276e-07
2.9668e-07
2.87841e-07
2.79811e-07
2.72637e-07
2.66328e-07
2.60855e-07
2.56206e-07
2.52348e-07
2.49246e-07
2.46809e-07
2.45008e-07
2.43834e-07
2.43191e-07
2.43198e-07
2.43717e-07
2.44918e-07
2.46813e-07
2.69847e-07
2.70081e-07
2.70605e-07
2.71204e-07
2.71834e-07
2.72497e-07
2.73048e-07
2.73539e-07
2.7397e-07
2.7435e-07
2.74703e-07
2.75053e-07
2.75419e-07
2.75819e-07
2.76272e-07
2.76791e-07
2.77388e-07
2.78073e-07
2.7885e-07
2.79725e-07
2.80702e-07
2.81787e-07
2.82981e-07
2.84285e-07
2.857e-07
2.87226e-07
2.88862e-07
2.90606e-07
2.92458e-07
2.94414e-07
2.96475e-07
2.98637e-07
3.009e-07
3.0326e-07
3.05717e-07
3.0827e-07
3.10916e-07
3.13652e-07
3.16478e-07
3.19391e-07
3.2239e-07
3.25471e-07
3.28633e-07
3.31872e-07
3.35185e-07
3.38571e-07
3.42025e-07
3.45541e-07
3.49115e-07
3.52741e-07
3.5641e-07
3.60114e-07
3.6384e-07
3.67576e-07
3.71304e-07
3.75002e-07
3.78643e-07
3.82195e-07
3.85622e-07
3.88872e-07
3.91888e-07
3.94612e-07
3.96973e-07
3.98893e-07
4.00287e-07
4.01066e-07
4.01143e-07
4.00441e-07
3.989e-07
3.96478e-07
3.93169e-07
3.88999e-07
3.84031e-07
3.78359e-07
3.72105e-07
3.654e-07
3.5838e-07
3.51172e-07
3.43892e-07
3.36644e-07
3.29519e-07
3.22597e-07
3.15952e-07
3.09649e-07
3.03742e-07
2.98281e-07
2.93296e-07
2.88803e-07
2.84815e-07
2.81329e-07
2.78334e-07
2.75796e-07
2.73696e-07
2.72022e-07
2.70726e-07
2.69824e-07
2.69226e-07
2.68962e-07
2.69089e-07
2.61837e-07
2.60695e-07
2.59383e-07
2.5803e-07
2.56578e-07
2.55154e-07
2.53749e-07
2.52392e-07
2.51131e-07
2.49981e-07
2.48964e-07
2.48097e-07
2.47394e-07
2.4686e-07
2.465e-07
2.46319e-07
2.4631e-07
2.46478e-07
2.46811e-07
2.47307e-07
2.47957e-07
2.4876e-07
2.4971e-07
2.50802e-07
2.52029e-07
2.53388e-07
2.54871e-07
2.56476e-07
2.58196e-07
2.60028e-07
2.61967e-07
2.64009e-07
2.66152e-07
2.68391e-07
2.70724e-07
2.73149e-07
2.75663e-07
2.78261e-07
2.80944e-07
2.83706e-07
2.86548e-07
2.89464e-07
2.92453e-07
2.95511e-07
2.98636e-07
3.01824e-07
3.05071e-07
3.08373e-07
3.11723e-07
3.15115e-07
3.18542e-07
3.21994e-07
3.25459e-07
3.28926e-07
3.32376e-07
3.35788e-07
3.39136e-07
3.42392e-07
3.45521e-07
3.48483e-07
3.51226e-07
3.53684e-07
3.55801e-07
3.57513e-07
3.58756e-07
3.59466e-07
3.59586e-07
3.59072e-07
3.579e-07
3.56066e-07
3.53595e-07
3.50536e-07
3.46961e-07
3.4296e-07
3.38625e-07
3.34048e-07
3.29312e-07
3.24491e-07
3.19644e-07
3.14825e-07
3.10076e-07
3.05444e-07
3.00963e-07
2.96671e-07
2.92601e-07
2.88781e-07
2.85234e-07
2.81978e-07
2.79019e-07
2.76362e-07
2.74e-07
2.71922e-07
2.70107e-07
2.68531e-07
2.67162e-07
2.65953e-07
2.6486e-07
2.63809e-07
2.62756e-07
2.3841e-07
2.36704e-07
2.34523e-07
2.32254e-07
2.29849e-07
2.27506e-07
2.25304e-07
2.23249e-07
2.21408e-07
2.19791e-07
2.18408e-07
2.1726e-07
2.16351e-07
2.15674e-07
2.15221e-07
2.14988e-07
2.14957e-07
2.15126e-07
2.15477e-07
2.16002e-07
2.16688e-07
2.17528e-07
2.18513e-07
2.19637e-07
2.2089e-07
2.22267e-07
2.23761e-07
2.25365e-07
2.27075e-07
2.28885e-07
2.30791e-07
2.32788e-07
2.34873e-07
2.37042e-07
2.39291e-07
2.41618e-07
2.44021e-07
2.46495e-07
2.49039e-07
2.51648e-07
2.54321e-07
2.57054e-07
2.59845e-07
2.62689e-07
2.65582e-07
2.68522e-07
2.71503e-07
2.74519e-07
2.77565e-07
2.80632e-07
2.83712e-07
2.86794e-07
2.89866e-07
2.92913e-07
2.95916e-07
2.98853e-07
3.01698e-07
3.04421e-07
3.06987e-07
3.0936e-07
3.11494e-07
3.13342e-07
3.14829e-07
3.15911e-07
3.16542e-07
3.1668e-07
3.16299e-07
3.15383e-07
3.13939e-07
3.11994e-07
3.09597e-07
3.06813e-07
3.03718e-07
3.00396e-07
2.9692e-07
2.93357e-07
2.89762e-07
2.86177e-07
2.82635e-07
2.79166e-07
2.75782e-07
2.72517e-07
2.69377e-07
2.66386e-07
2.63555e-07
2.60901e-07
2.58432e-07
2.56159e-07
2.5408e-07
2.52199e-07
2.50504e-07
2.48992e-07
2.47636e-07
2.464e-07
2.45258e-07
2.44126e-07
2.42981e-07
2.41689e-07
2.40193e-07
2.09618e-07
2.07986e-07
2.05708e-07
2.03332e-07
2.00832e-07
1.98422e-07
1.96218e-07
1.94212e-07
1.92467e-07
1.90987e-07
1.8977e-07
1.88806e-07
1.88092e-07
1.87612e-07
1.87354e-07
1.87309e-07
1.87455e-07
1.87788e-07
1.88288e-07
1.88947e-07
1.8975e-07
1.9069e-07
1.91757e-07
1.92946e-07
1.94247e-07
1.95654e-07
1.97161e-07
1.98762e-07
2.00452e-07
2.02225e-07
2.04078e-07
2.06007e-07
2.08007e-07
2.10076e-07
2.12209e-07
2.14404e-07
2.16657e-07
2.18966e-07
2.21328e-07
2.23738e-07
2.26194e-07
2.28691e-07
2.31227e-07
2.33797e-07
2.36396e-07
2.39019e-07
2.4166e-07
2.44313e-07
2.46969e-07
2.4962e-07
2.52254e-07
2.54861e-07
2.57423e-07
2.59926e-07
2.62348e-07
2.64666e-07
2.66853e-07
2.68878e-07
2.70709e-07
2.72308e-07
2.73637e-07
2.74657e-07
2.75329e-07
2.75592e-07
2.75417e-07
2.74793e-07
2.73718e-07
2.72207e-07
2.70292e-07
2.6802e-07
2.65455e-07
2.62669e-07
2.59735e-07
2.56721e-07
2.53688e-07
2.50679e-07
2.47729e-07
2.44865e-07
2.42099e-07
2.39449e-07
2.36913e-07
2.34512e-07
2.32242e-07
2.30114e-07
2.28128e-07
2.26291e-07
2.24604e-07
2.23071e-07
2.21685e-07
2.20446e-07
2.19341e-07
2.18368e-07
2.17496e-07
2.16684e-07
2.15909e-07
2.15073e-07
2.14161e-07
2.13019e-07
2.11583e-07
1.81473e-07
1.80233e-07
1.78308e-07
1.76279e-07
1.74147e-07
1.72105e-07
1.70276e-07
1.68645e-07
1.67269e-07
1.66144e-07
1.65265e-07
1.64617e-07
1.64194e-07
1.63979e-07
1.63959e-07
1.64125e-07
1.64455e-07
1.64946e-07
1.65579e-07
1.66347e-07
1.67237e-07
1.68241e-07
1.69352e-07
1.70563e-07
1.71868e-07
1.73261e-07
1.74736e-07
1.76287e-07
1.7791e-07
1.79601e-07
1.81355e-07
1.83168e-07
1.85036e-07
1.86957e-07
1.88926e-07
1.90941e-07
1.92997e-07
1.95092e-07
1.97221e-07
1.99381e-07
2.01568e-07
2.03777e-07
2.06003e-07
2.08242e-07
2.10487e-07
2.12732e-07
2.14971e-07
2.17193e-07
2.19391e-07
2.21552e-07
2.23666e-07
2.25717e-07
2.2769e-07
2.29564e-07
2.3132e-07
2.32933e-07
2.34377e-07
2.35622e-07
2.36638e-07
2.37395e-07
2.37861e-07
2.38006e-07
2.37808e-07
2.37247e-07
2.36292e-07
2.34943e-07
2.3323e-07
2.31192e-07
2.28877e-07
2.26344e-07
2.2366e-07
2.20892e-07
2.18101e-07
2.15342e-07
2.12657e-07
2.10072e-07
2.07608e-07
2.05277e-07
2.03082e-07
2.01031e-07
1.99116e-07
1.97348e-07
1.95718e-07
1.9423e-07
1.9288e-07
1.91666e-07
1.90586e-07
1.89642e-07
1.88824e-07
1.88129e-07
1.87543e-07
1.87066e-07
1.86666e-07
1.86304e-07
1.85957e-07
1.85528e-07
1.85007e-07
1.8424e-07
1.83157e-07
1.56724e-07
1.55957e-07
1.54544e-07
1.53015e-07
1.51394e-07
1.49843e-07
1.48475e-07
1.47278e-07
1.463e-07
1.45538e-07
1.44984e-07
1.44625e-07
1.44455e-07
1.44459e-07
1.44626e-07
1.44946e-07
1.45403e-07
1.45994e-07
1.46701e-07
1.4752e-07
1.48438e-07
1.4945e-07
1.50549e-07
1.5173e-07
1.52986e-07
1.54314e-07
1.55706e-07
1.5716e-07
1.58669e-07
1.60231e-07
1.6184e-07
1.63494e-07
1.65187e-07
1.66918e-07
1.68681e-07
1.70474e-07
1.72292e-07
1.74131e-07
1.75987e-07
1.77855e-07
1.79731e-07
1.81609e-07
1.83484e-07
1.8535e-07
1.87198e-07
1.89023e-07
1.90814e-07
1.92563e-07
1.94259e-07
1.95889e-07
1.9744e-07
1.98897e-07
2.00242e-07
2.01458e-07
2.02522e-07
2.03412e-07
2.04105e-07
2.04576e-07
2.04802e-07
2.04759e-07
2.04426e-07
2.0379e-07
2.0284e-07
2.01577e-07
2.00012e-07
1.98141e-07
1.96004e-07
1.93658e-07
1.91159e-07
1.88567e-07
1.8594e-07
1.83334e-07
1.80797e-07
1.78365e-07
1.76064e-07
1.73908e-07
1.71905e-07
1.70059e-07
1.68367e-07
1.6683e-07
1.65438e-07
1.64197e-07
1.63095e-07
1.62131e-07
1.613e-07
1.60597e-07
1.6002e-07
1.59566e-07
1.59225e-07
1.58994e-07
1.5886e-07
1.58822e-07
1.58852e-07
1.58913e-07
1.58984e-07
1.58977e-07
1.58882e-07
1.58556e-07
1.57927e-07
1.36073e-07
1.35726e-07
1.34802e-07
1.33747e-07
1.32603e-07
1.31501e-07
1.30541e-07
1.29717e-07
1.29068e-07
1.28595e-07
1.28291e-07
1.28146e-07
1.28154e-07
1.28304e-07
1.28586e-07
1.28994e-07
1.29513e-07
1.3014e-07
1.30863e-07
1.31676e-07
1.3257e-07
1.33539e-07
1.34578e-07
1.35682e-07
1.36847e-07
1.38067e-07
1.39338e-07
1.40655e-07
1.42014e-07
1.43411e-07
1.44842e-07
1.46303e-07
1.47789e-07
1.49298e-07
1.50825e-07
1.52366e-07
1.53917e-07
1.55473e-07
1.57028e-07
1.58578e-07
1.60118e-07
1.61641e-07
1.63141e-07
1.6461e-07
1.66041e-07
1.67426e-07
1.68754e-07
1.70016e-07
1.712e-07
1.72293e-07
1.73283e-07
1.74153e-07
1.74888e-07
1.7547e-07
1.75882e-07
1.76105e-07
1.76121e-07
1.75912e-07
1.75463e-07
1.74762e-07
1.73802e-07
1.7258e-07
1.71103e-07
1.69385e-07
1.67451e-07
1.65333e-07
1.63048e-07
1.60663e-07
1.58231e-07
1.55803e-07
1.53424e-07
1.51137e-07
1.48971e-07
1.46949e-07
1.45084e-07
1.43381e-07
1.41841e-07
1.40461e-07
1.39237e-07
1.38165e-07
1.37233e-07
1.36447e-07
1.35792e-07
1.35267e-07
1.34865e-07
1.34582e-07
1.34413e-07
1.34356e-07
1.34401e-07
1.34545e-07
1.34776e-07
1.35093e-07
1.35473e-07
1.35881e-07
1.36301e-07
1.36654e-07
1.3693e-07
1.37e-07
1.3679e-07
1.19206e-07
1.19177e-07
1.18644e-07
1.17968e-07
1.17203e-07
1.16453e-07
1.15807e-07
1.15261e-07
1.14853e-07
1.14584e-07
1.14448e-07
1.1444e-07
1.14555e-07
1.14784e-07
1.1512e-07
1.15557e-07
1.16084e-07
1.16699e-07
1.1739e-07
1.18154e-07
1.18983e-07
1.19871e-07
1.20815e-07
1.2181e-07
1.22852e-07
1.23936e-07
1.25057e-07
1.26212e-07
1.27396e-07
1.28605e-07
1.29836e-07
1.31083e-07
1.32344e-07
1.33613e-07
1.34887e-07
1.36161e-07
1.3743e-07
1.38689e-07
1.39933e-07
1.41156e-07
1.42352e-07
1.43515e-07
1.44638e-07
1.45712e-07
1.46731e-07
1.47684e-07
1.48564e-07
1.49358e-07
1.50058e-07
1.5065e-07
1.51122e-07
1.51462e-07
1.51655e-07
1.51689e-07
1.5155e-07
1.51225e-07
1.50704e-07
1.49977e-07
1.49039e-07
1.47888e-07
1.46529e-07
1.44971e-07
1.43232e-07
1.41334e-07
1.39309e-07
1.37194e-07
1.35016e-07
1.32822e-07
1.30657e-07
1.28558e-07
1.2656e-07
1.24686e-07
1.22956e-07
1.2138e-07
1.19963e-07
1.18704e-07
1.176e-07
1.16646e-07
1.15835e-07
1.15164e-07
1.14622e-07
1.1421e-07
1.13917e-07
1.1374e-07
1.13674e-07
1.13713e-07
1.13854e-07
1.14094e-07
1.14424e-07
1.14842e-07
1.15338e-07
1.1591e-07
1.1654e-07
1.17199e-07
1.17869e-07
1.18487e-07
1.19037e-07
1.19406e-07
1.19519e-07
1.05466e-07
1.05654e-07
1.05405e-07
1.05006e-07
1.04517e-07
1.04021e-07
1.03596e-07
1.03244e-07
1.02996e-07
1.02857e-07
1.02823e-07
1.0289e-07
1.03054e-07
1.03311e-07
1.03653e-07
1.04077e-07
1.04572e-07
1.05139e-07
1.05767e-07
1.06453e-07
1.07189e-07
1.07972e-07
1.08798e-07
1.09663e-07
1.10562e-07
1.11492e-07
1.12448e-07
1.13426e-07
1.14423e-07
1.15433e-07
1.16454e-07
1.1748e-07
1.18508e-07
1.19533e-07
1.20551e-07
1.21556e-07
1.22545e-07
1.23511e-07
1.2445e-07
1.25355e-07
1.2622e-07
1.27038e-07
1.27804e-07
1.28509e-07
1.29145e-07
1.29705e-07
1.3018e-07
1.3056e-07
1.30836e-07
1.30998e-07
1.31038e-07
1.30944e-07
1.30707e-07
1.30319e-07
1.29772e-07
1.29061e-07
1.28181e-07
1.27131e-07
1.25916e-07
1.24541e-07
1.23018e-07
1.21365e-07
1.19603e-07
1.17758e-07
1.15861e-07
1.13944e-07
1.12041e-07
1.10177e-07
1.08385e-07
1.06692e-07
1.05117e-07
1.03674e-07
1.02374e-07
1.01219e-07
1.0021e-07
9.93422e-08
9.86117e-08
9.80133e-08
9.75402e-08
9.71884e-08
9.69489e-08
9.68217e-08
9.67983e-08
9.68761e-08
9.70499e-08
9.73157e-08
9.76701e-08
9.81107e-08
9.86311e-08
9.92281e-08
9.98947e-08
1.00629e-07
1.01416e-07
1.02232e-07
1.03062e-07
1.0385e-07
1.04578e-07
1.05151e-07
1.05494e-07
9.41927e-08
9.45174e-08
9.44613e-08
9.42508e-08
9.39513e-08
9.36292e-08
9.3351e-08
9.3123e-08
9.29736e-08
9.29084e-08
9.29253e-08
9.30217e-08
9.31956e-08
9.3443e-08
9.37586e-08
9.41398e-08
9.45783e-08
9.50734e-08
9.5617e-08
9.62059e-08
9.6834e-08
9.74977e-08
9.81935e-08
9.8918e-08
9.96668e-08
1.00436e-07
1.01222e-07
1.02021e-07
1.02828e-07
1.0364e-07
1.04452e-07
1.05261e-07
1.06062e-07
1.0685e-07
1.07622e-07
1.08372e-07
1.09096e-07
1.09788e-07
1.10443e-07
1.11056e-07
1.1162e-07
1.1213e-07
1.12579e-07
1.12961e-07
1.13269e-07
1.13495e-07
1.13633e-07
1.13676e-07
1.13617e-07
1.13447e-07
1.13162e-07
1.12756e-07
1.12222e-07
1.11558e-07
1.10761e-07
1.09832e-07
1.08773e-07
1.07588e-07
1.06286e-07
1.0488e-07
1.03385e-07
1.01818e-07
1.00203e-07
9.8563e-08
9.69237e-08
9.53112e-08
9.37507e-08
9.2261e-08
9.08609e-08
8.9566e-08
8.83874e-08
8.73328e-08
8.64052e-08
8.56053e-08
8.49306e-08
8.4377e-08
8.39394e-08
8.36135e-08
8.33935e-08
8.32759e-08
8.32537e-08
8.33266e-08
8.34883e-08
8.37367e-08
8.40676e-08
8.44781e-08
8.49656e-08
8.55281e-08
8.61607e-08
8.68608e-08
8.76231e-08
8.84464e-08
8.93181e-08
9.02183e-08
9.11326e-08
9.2015e-08
9.28459e-08
9.3542e-08
9.40324e-08
8.48348e-08
8.52365e-08
8.53037e-08
8.52161e-08
8.50396e-08
8.48291e-08
8.46424e-08
8.44883e-08
8.43921e-08
8.43605e-08
8.43924e-08
8.44868e-08
8.46423e-08
8.48563e-08
8.51246e-08
8.54452e-08
8.58112e-08
8.6222e-08
8.66707e-08
8.71543e-08
8.76677e-08
8.82075e-08
8.87705e-08
8.93534e-08
8.99523e-08
9.05637e-08
9.11835e-08
9.18084e-08
9.2434e-08
9.30566e-08
9.36724e-08
9.42774e-08
9.48674e-08
9.54382e-08
9.59856e-08
9.6505e-08
9.6992e-08
9.74418e-08
9.78494e-08
9.82099e-08
9.85182e-08
9.8769e-08
9.89572e-08
9.90773e-08
9.91241e-08
9.90923e-08
9.89769e-08
9.87727e-08
9.84756e-08
9.80815e-08
9.75874e-08
9.6991e-08
9.62911e-08
9.54884e-08
9.45847e-08
9.3584e-08
9.24925e-08
9.13184e-08
9.00727e-08
8.87685e-08
8.74211e-08
8.60478e-08
8.46672e-08
8.32984e-08
8.19612e-08
8.06741e-08
7.94548e-08
7.8316e-08
7.72668e-08
7.63159e-08
7.54691e-08
7.47298e-08
7.40985e-08
7.35742e-08
7.31541e-08
7.28344e-08
7.26109e-08
7.24801e-08
7.24374e-08
7.24803e-08
7.26035e-08
7.28069e-08
7.30858e-08
7.34389e-08
7.38633e-08
7.43566e-08
7.49171e-08
7.55433e-08
7.62314e-08
7.69795e-08
7.77837e-08
7.86429e-08
7.95471e-08
8.04793e-08
8.1426e-08
8.23479e-08
8.32248e-08
8.39841e-08
8.45586e-08
7.69675e-08
7.74045e-08
7.75444e-08
7.75314e-08
7.74298e-08
7.72863e-08
7.71512e-08
7.70351e-08
7.69606e-08
7.6935e-08
7.69582e-08
7.70301e-08
7.71501e-08
7.73164e-08
7.75257e-08
7.77765e-08
7.80629e-08
7.83846e-08
7.87355e-08
7.91131e-08
7.95127e-08
7.99312e-08
8.03658e-08
8.08134e-08
8.12702e-08
8.17332e-08
8.21985e-08
8.26628e-08
8.31223e-08
8.35734e-08
8.40125e-08
8.4436e-08
8.48399e-08
8.52205e-08
8.55739e-08
8.58961e-08
8.61832e-08
8.6431e-08
8.66354e-08
8.67922e-08
8.68973e-08
8.69466e-08
8.69363e-08
8.68623e-08
8.67212e-08
8.65094e-08
8.62239e-08
8.58619e-08
8.54217e-08
8.49017e-08
8.43017e-08
8.36222e-08
8.28647e-08
8.20326e-08
8.11301e-08
8.01632e-08
7.91397e-08
7.80686e-08
7.69607e-08
7.5828e-08
7.4684e-08
7.35424e-08
7.24179e-08
7.13245e-08
7.02762e-08
6.92857e-08
6.8365e-08
6.75215e-08
6.67589e-08
6.60819e-08
6.54934e-08
6.49945e-08
6.45848e-08
6.42631e-08
6.40267e-08
6.38727e-08
6.37978e-08
6.37995e-08
6.38745e-08
6.40208e-08
6.42349e-08
6.45168e-08
6.48634e-08
6.52738e-08
6.57461e-08
6.62787e-08
6.68703e-08
6.752e-08
6.82248e-08
6.89836e-08
6.97932e-08
7.06528e-08
7.15542e-08
7.24828e-08
7.3426e-08
7.43499e-08
7.52337e-08
7.60138e-08
7.66266e-08
7.02727e-08
7.07171e-08
7.08938e-08
7.09212e-08
7.08605e-08
7.07527e-08
7.06416e-08
7.0539e-08
7.04654e-08
7.0428e-08
7.04279e-08
7.04655e-08
7.05406e-08
7.06523e-08
7.0798e-08
7.09764e-08
7.11828e-08
7.14167e-08
7.16731e-08
7.19495e-08
7.22419e-08
7.25476e-08
7.28637e-08
7.31876e-08
7.35159e-08
7.38457e-08
7.41735e-08
7.44963e-08
7.48105e-08
7.51131e-08
7.54008e-08
7.56702e-08
7.5918e-08
7.6141e-08
7.63357e-08
7.64989e-08
7.66272e-08
7.67173e-08
7.67659e-08
7.67699e-08
7.67263e-08
7.66321e-08
7.64847e-08
7.62816e-08
7.60208e-08
7.57005e-08
7.53192e-08
7.48762e-08
7.43713e-08
7.38052e-08
7.31791e-08
7.24954e-08
7.17573e-08
7.0969e-08
7.01361e-08
6.92647e-08
6.83626e-08
6.7438e-08
6.65005e-08
6.55598e-08
6.46267e-08
6.37116e-08
6.28251e-08
6.19771e-08
6.11771e-08
6.04334e-08
5.97552e-08
5.91447e-08
5.86034e-08
5.8134e-08
5.77378e-08
5.74151e-08
5.71651e-08
5.69869e-08
5.68783e-08
5.68372e-08
5.68613e-08
5.69489e-08
5.70976e-08
5.73062e-08
5.75723e-08
5.78963e-08
5.82759e-08
5.8711e-08
5.92002e-08
5.97427e-08
6.03375e-08
6.0984e-08
6.16802e-08
6.24249e-08
6.32161e-08
6.40529e-08
6.49285e-08
6.58303e-08
6.67464e-08
6.7647e-08
6.85115e-08
6.92834e-08
6.99026e-08
6.45148e-08
6.49477e-08
6.51367e-08
6.51808e-08
6.51379e-08
6.50444e-08
6.4939e-08
6.48341e-08
6.47483e-08
6.4689e-08
6.46576e-08
6.46553e-08
6.46823e-08
6.4738e-08
6.48206e-08
6.49292e-08
6.50597e-08
6.52118e-08
6.53812e-08
6.55656e-08
6.57616e-08
6.59666e-08
6.61781e-08
6.63939e-08
6.66107e-08
6.68259e-08
6.70367e-08
6.72401e-08
6.74332e-08
6.76132e-08
6.77772e-08
6.79226e-08
6.80463e-08
6.81457e-08
6.8218e-08
6.82607e-08
6.82712e-08
6.82468e-08
6.81852e-08
6.80843e-08
6.79419e-08
6.77562e-08
6.75257e-08
6.72491e-08
6.69255e-08
6.65545e-08
6.61358e-08
6.56699e-08
6.51579e-08
6.46014e-08
6.40027e-08
6.33649e-08
6.26917e-08
6.19876e-08
6.1258e-08
6.05086e-08
5.97461e-08
5.89775e-08
5.82104e-08
5.74525e-08
5.67118e-08
5.59959e-08
5.53123e-08
5.46678e-08
5.40686e-08
5.352e-08
5.30298e-08
5.25962e-08
5.22204e-08
5.19038e-08
5.16471e-08
5.14502e-08
5.13125e-08
5.12332e-08
5.1211e-08
5.12442e-08
5.13315e-08
5.14716e-08
5.16632e-08
5.19054e-08
5.21967e-08
5.25378e-08
5.29272e-08
5.33652e-08
5.38509e-08
5.43839e-08
5.49637e-08
5.55899e-08
5.62608e-08
5.69759e-08
5.77334e-08
5.85327e-08
5.9368e-08
6.02282e-08
6.1102e-08
6.19631e-08
6.27911e-08
6.35356e-08
6.41398e-08
5.95182e-08
5.99277e-08
6.01123e-08
6.01574e-08
6.01169e-08
6.00239e-08
5.99128e-08
5.97963e-08
5.96912e-08
5.96049e-08
5.95394e-08
5.94963e-08
5.9476e-08
5.94785e-08
5.95024e-08
5.9547e-08
5.96091e-08
5.96883e-08
5.9781e-08
5.98853e-08
5.9998e-08
6.0117e-08
6.02401e-08
6.0365e-08
6.04892e-08
6.06103e-08
6.07257e-08
6.08331e-08
6.09298e-08
6.10135e-08
6.10818e-08
6.11324e-08
6.1163e-08
6.11714e-08
6.11555e-08
6.11133e-08
6.10429e-08
6.09425e-08
6.08104e-08
6.06453e-08
6.04458e-08
6.0211e-08
5.99402e-08
5.9633e-08
5.92894e-08
5.89096e-08
5.84943e-08
5.80446e-08
5.75622e-08
5.7049e-08
5.65079e-08
5.59419e-08
5.53547e-08
5.47504e-08
5.41337e-08
5.35095e-08
5.28834e-08
5.22607e-08
5.16474e-08
5.10494e-08
5.04723e-08
4.99216e-08
4.94026e-08
4.89199e-08
4.84777e-08
4.80794e-08
4.77306e-08
4.74286e-08
4.71742e-08
4.69681e-08
4.68108e-08
4.67022e-08
4.66419e-08
4.66293e-08
4.66635e-08
4.67437e-08
4.68689e-08
4.70384e-08
4.72514e-08
4.75076e-08
4.78061e-08
4.81476e-08
4.85314e-08
4.89579e-08
4.94269e-08
4.99381e-08
5.04913e-08
5.10862e-08
5.17218e-08
5.23974e-08
5.3112e-08
5.38647e-08
5.46508e-08
5.54604e-08
5.62825e-08
5.7094e-08
5.78746e-08
5.85793e-08
5.91546e-08
5.51513e-08
5.55298e-08
5.56995e-08
5.57356e-08
5.56879e-08
5.55872e-08
5.5464e-08
5.5331e-08
5.52038e-08
5.50894e-08
5.49906e-08
5.49088e-08
5.48452e-08
5.47997e-08
5.47716e-08
5.47603e-08
5.47634e-08
5.47805e-08
5.48085e-08
5.48457e-08
5.48896e-08
5.49381e-08
5.49893e-08
5.50414e-08
5.50919e-08
5.5139e-08
5.51805e-08
5.52142e-08
5.52381e-08
5.52501e-08
5.52484e-08
5.52311e-08
5.51963e-08
5.51425e-08
5.50679e-08
5.49712e-08
5.48509e-08
5.47059e-08
5.45351e-08
5.43377e-08
5.41131e-08
5.38608e-08
5.35807e-08
5.3273e-08
5.29382e-08
5.25768e-08
5.219e-08
5.17793e-08
5.13463e-08
5.08933e-08
5.04227e-08
4.99376e-08
4.94411e-08
4.89369e-08
4.84286e-08
4.79204e-08
4.74166e-08
4.69213e-08
4.64391e-08
4.59742e-08
4.55308e-08
4.51127e-08
4.47236e-08
4.43666e-08
4.40446e-08
4.376e-08
4.35163e-08
4.3311e-08
4.31446e-08
4.30176e-08
4.29303e-08
4.28827e-08
4.28745e-08
4.29055e-08
4.29752e-08
4.30831e-08
4.32286e-08
4.34116e-08
4.36315e-08
4.38885e-08
4.4182e-08
4.4513e-08
4.48812e-08
4.52871e-08
4.57309e-08
4.62126e-08
4.67321e-08
4.72893e-08
4.78833e-08
4.85139e-08
4.91801e-08
4.98812e-08
5.0613e-08
5.13666e-08
5.21318e-08
5.28877e-08
5.36146e-08
5.42719e-08
5.48094e-08
5.13138e-08
5.1657e-08
5.18056e-08
5.18268e-08
5.17668e-08
5.1654e-08
5.15158e-08
5.1365e-08
5.12156e-08
5.10749e-08
5.09456e-08
5.08297e-08
5.07283e-08
5.06418e-08
5.05697e-08
5.05118e-08
5.04662e-08
5.04325e-08
5.04082e-08
5.03918e-08
5.0381e-08
5.03743e-08
5.03698e-08
5.03659e-08
5.03607e-08
5.03525e-08
5.03395e-08
5.03199e-08
5.02919e-08
5.02539e-08
5.02044e-08
5.0142e-08
5.00652e-08
4.99727e-08
4.98634e-08
4.97362e-08
4.95902e-08
4.94246e-08
4.92388e-08
4.90323e-08
4.8805e-08
4.85568e-08
4.82879e-08
4.79987e-08
4.76899e-08
4.73625e-08
4.70175e-08
4.66564e-08
4.62811e-08
4.58934e-08
4.54956e-08
4.50902e-08
4.46799e-08
4.42677e-08
4.38567e-08
4.345e-08
4.30508e-08
4.26626e-08
4.22884e-08
4.19315e-08
4.15948e-08
4.12811e-08
4.09929e-08
4.07325e-08
4.05017e-08
4.03021e-08
4.0136e-08
4.00013e-08
3.98983e-08
3.98273e-08
3.97886e-08
3.97823e-08
3.98083e-08
3.98665e-08
3.99568e-08
4.00789e-08
4.02328e-08
4.04183e-08
4.06354e-08
4.08843e-08
4.1165e-08
4.14784e-08
4.18246e-08
4.22043e-08
4.26178e-08
4.30654e-08
4.35471e-08
4.40628e-08
4.4612e-08
4.51945e-08
4.58095e-08
4.64564e-08
4.71315e-08
4.78268e-08
4.85324e-08
4.92297e-08
4.98995e-08
5.05054e-08
5.10001e-08
4.79285e-08
4.82343e-08
4.83586e-08
4.83622e-08
4.82874e-08
4.8161e-08
4.80077e-08
4.78397e-08
4.76704e-08
4.75065e-08
4.73513e-08
4.72067e-08
4.70741e-08
4.69542e-08
4.68468e-08
4.67518e-08
4.66677e-08
4.65944e-08
4.65297e-08
4.64723e-08
4.64204e-08
4.63724e-08
4.63269e-08
4.62824e-08
4.62373e-08
4.61902e-08
4.61395e-08
4.60839e-08
4.60217e-08
4.59517e-08
4.58727e-08
4.57835e-08
4.5683e-08
4.55703e-08
4.54444e-08
4.53047e-08
4.51506e-08
4.49814e-08
4.4797e-08
4.4597e-08
4.43816e-08
4.41509e-08
4.39053e-08
4.36452e-08
4.33715e-08
4.3085e-08
4.2787e-08
4.24787e-08
4.21617e-08
4.18377e-08
4.15087e-08
4.11766e-08
4.08438e-08
4.05126e-08
4.01853e-08
3.98645e-08
3.95526e-08
3.92521e-08
3.89654e-08
3.86947e-08
3.84423e-08
3.82101e-08
3.79998e-08
3.78129e-08
3.76508e-08
3.75148e-08
3.74058e-08
3.73222e-08
3.72644e-08
3.72326e-08
3.72271e-08
3.7248e-08
3.72954e-08
3.73693e-08
3.74698e-08
3.7597e-08
3.77508e-08
3.79315e-08
3.81392e-08
3.83744e-08
3.86372e-08
3.89285e-08
3.92489e-08
3.9599e-08
3.99793e-08
4.03903e-08
4.0832e-08
4.13045e-08
4.18075e-08