/*--------------------------------*- C++ -*----------------------------------*\
  =========                 |
  \\      /  F ield         | OpenFOAM: The Open Source CFD Toolbox
   \\    /   O peration     | Website:  https://openfoam.org
    \\  /    A nd           | Version:  8
     \\/     M anipulation  |
\*---------------------------------------------------------------------------*/
FoamFile
{
    version     2.0;
    format      ascii;
    class       volScalarField;
    location    "10000";
    object      k;
}
// * * * * * * * * * * * * * * * * * * * * * * * * * * * * * * * * * * * * * //

dimensions      [0 2 -2 0 0 0 0];

internalField   nonuniform List<scalar> 
14751
(
5.61751e-09
5.85733e-09
6.12692e-09
6.40249e-09
6.69348e-09
6.99614e-09
7.30581e-09
7.62811e-09
7.95832e-09
8.30168e-09
8.65319e-09
9.01613e-09
9.3873e-09
9.7646e-09
1.01502e-08
1.05414e-08
1.09396e-08
1.13406e-08
1.17476e-08
1.2158e-08
1.25746e-08
1.29958e-08
1.34217e-08
1.38512e-08
1.42868e-08
1.47272e-08
1.51712e-08
1.5619e-08
1.60688e-08
1.65213e-08
1.69765e-08
1.7434e-08
1.78936e-08
1.83542e-08
1.88153e-08
1.92769e-08
1.97358e-08
2.01929e-08
2.06462e-08
2.10956e-08
2.15369e-08
2.19712e-08
2.23994e-08
2.28169e-08
2.32243e-08
2.36185e-08
2.39977e-08
2.43607e-08
2.47039e-08
2.50252e-08
2.53219e-08
2.55913e-08
2.58309e-08
2.60367e-08
2.6205e-08
2.63327e-08
2.64178e-08
2.64568e-08
2.64311e-08
2.63262e-08
2.61319e-08
2.58278e-08
2.53957e-08
2.48158e-08
2.4066e-08
2.31366e-08
2.20237e-08
2.07367e-08
1.92962e-08
1.77426e-08
1.61279e-08
1.45095e-08
1.29442e-08
1.14789e-08
1.01471e-08
8.9671e-09
7.94439e-09
7.0762e-09
6.35509e-09
5.77111e-09
5.30752e-09
4.94472e-09
4.66714e-09
4.45661e-09
4.30211e-09
4.19369e-09
4.12475e-09
4.09026e-09
4.08643e-09
4.11026e-09
4.16003e-09
4.23387e-09
4.33126e-09
4.45176e-09
4.59378e-09
4.75885e-09
4.94276e-09
5.14504e-09
5.3652e-09
1.05517e-07
1.09893e-07
1.14793e-07
1.19774e-07
1.25013e-07
1.30448e-07
1.3599e-07
1.41697e-07
1.47537e-07
1.53598e-07
1.59796e-07
1.66184e-07
1.72715e-07
1.79354e-07
1.86137e-07
1.93023e-07
2.00029e-07
2.07087e-07
2.14247e-07
2.21474e-07
2.28809e-07
2.36227e-07
2.43726e-07
2.51296e-07
2.58975e-07
2.66736e-07
2.74561e-07
2.82453e-07
2.90381e-07
2.9836e-07
3.0639e-07
3.14463e-07
3.22573e-07
3.30707e-07
3.38853e-07
3.47005e-07
3.55115e-07
3.63199e-07
3.7122e-07
3.79169e-07
3.86984e-07
3.94686e-07
4.02286e-07
4.09711e-07
4.16967e-07
4.23998e-07
4.30775e-07
4.37273e-07
4.43434e-07
4.49218e-07
4.54581e-07
4.59472e-07
4.63847e-07
4.67635e-07
4.70773e-07
4.73203e-07
4.74883e-07
4.7574e-07
4.75447e-07
4.73759e-07
4.70476e-07
4.65243e-07
4.57724e-07
4.47561e-07
4.34372e-07
4.17974e-07
3.98297e-07
3.75487e-07
3.49908e-07
3.22264e-07
2.93467e-07
2.64533e-07
2.36479e-07
2.10156e-07
1.86185e-07
1.6492e-07
1.46481e-07
1.30811e-07
1.17775e-07
1.07211e-07
9.88179e-08
9.22436e-08
8.72125e-08
8.34002e-08
8.06112e-08
7.86668e-08
7.74486e-08
7.68657e-08
7.68495e-08
7.73447e-08
7.83198e-08
7.97411e-08
8.15973e-08
8.3878e-08
8.65511e-08
8.9643e-08
9.30714e-08
9.68228e-08
1.0088e-07
4.2343e-07
4.40247e-07
4.5973e-07
4.80099e-07
5.02021e-07
5.25085e-07
5.48837e-07
5.73528e-07
5.98937e-07
6.25054e-07
6.51903e-07
6.79672e-07
7.08246e-07
7.37446e-07
7.67376e-07
7.97909e-07
8.2903e-07
8.60498e-07
8.92467e-07
9.24808e-07
9.57616e-07
9.90797e-07
1.02432e-06
1.05814e-06
1.09235e-06
1.12684e-06
1.16156e-06
1.19648e-06
1.23149e-06
1.26663e-06
1.30189e-06
1.33721e-06
1.37259e-06
1.40794e-06
1.44322e-06
1.47839e-06
1.5133e-06
1.548e-06
1.58232e-06
1.61621e-06
1.64951e-06
1.68224e-06
1.71443e-06
1.74583e-06
1.7764e-06
1.80597e-06
1.83439e-06
1.86155e-06
1.88728e-06
1.91144e-06
1.93384e-06
1.9543e-06
1.97262e-06
1.98853e-06
2.00176e-06
2.01207e-06
2.01922e-06
2.02285e-06
2.02173e-06
2.01489e-06
2.00145e-06
1.98002e-06
1.94921e-06
1.90758e-06
1.85361e-06
1.78642e-06
1.7056e-06
1.61156e-06
1.50565e-06
1.39055e-06
1.26987e-06
1.1478e-06
1.02864e-06
9.16108e-07
8.13068e-07
7.21268e-07
6.41418e-07
5.73381e-07
5.16553e-07
4.6985e-07
4.32436e-07
4.02778e-07
3.79726e-07
3.61881e-07
3.48409e-07
3.38526e-07
3.3171e-07
3.27554e-07
3.25747e-07
3.26031e-07
3.2825e-07
3.32234e-07
3.37932e-07
3.45304e-07
3.54232e-07
3.64868e-07
3.76944e-07
3.90545e-07
4.05711e-07
1.11729e-06
1.15791e-06
1.20685e-06
1.25946e-06
1.31729e-06
1.37896e-06
1.44297e-06
1.51001e-06
1.57934e-06
1.65086e-06
1.7245e-06
1.80013e-06
1.87748e-06
1.95665e-06
2.03779e-06
2.12075e-06
2.20512e-06
2.29037e-06
2.3767e-06
2.4638e-06
2.55166e-06
2.64001e-06
2.7287e-06
2.81755e-06
2.9066e-06
2.99561e-06
3.08443e-06
3.17291e-06
3.26087e-06
3.34827e-06
3.43508e-06
3.52117e-06
3.60651e-06
3.69096e-06
3.77438e-06
3.8567e-06
3.93772e-06
4.01755e-06
4.09587e-06
4.17255e-06
4.24741e-06
4.3204e-06
4.39141e-06
4.4603e-06
4.52706e-06
4.59141e-06
4.65313e-06
4.71204e-06
4.76789e-06
4.82043e-06
4.86937e-06
4.91434e-06
4.95504e-06
4.99095e-06
5.02157e-06
5.0463e-06
5.06449e-06
5.07529e-06
5.07667e-06
5.06669e-06
5.0434e-06
5.00402e-06
4.94554e-06
4.86468e-06
4.75784e-06
4.62209e-06
4.45514e-06
4.256e-06
4.02547e-06
3.76717e-06
3.4874e-06
3.19474e-06
2.89939e-06
2.61166e-06
2.34072e-06
2.09352e-06
1.87423e-06
1.6843e-06
1.52322e-06
1.38866e-06
1.27805e-06
1.18792e-06
1.11637e-06
1.05949e-06
1.01506e-06
9.80794e-07
9.55185e-07
9.37041e-07
9.25433e-07
9.19559e-07
9.18905e-07
9.22924e-07
9.31448e-07
9.44372e-07
9.61398e-07
9.83066e-07
1.00879e-06
1.03916e-06
1.07452e-06
2.31526e-06
2.38588e-06
2.47433e-06
2.57133e-06
2.6793e-06
2.79496e-06
2.91458e-06
3.03934e-06
3.16746e-06
3.29839e-06
3.43174e-06
3.56712e-06
3.7038e-06
3.84154e-06
3.97988e-06
4.11812e-06
4.25637e-06
4.39403e-06
4.53109e-06
4.66728e-06
4.80215e-06
4.93539e-06
5.06678e-06
5.19612e-06
5.32342e-06
5.44848e-06
5.57122e-06
5.69157e-06
5.80944e-06
5.92488e-06
6.03793e-06
6.14861e-06
6.25698e-06
6.36307e-06
6.46678e-06
6.56811e-06
6.66699e-06
6.76337e-06
6.85738e-06
6.94903e-06
7.03822e-06
7.12495e-06
7.20921e-06
7.29092e-06
7.37012e-06
7.44665e-06
7.52033e-06
7.59104e-06
7.65856e-06
7.72271e-06
7.78318e-06
7.83967e-06
7.89186e-06
7.93924e-06
7.98126e-06
8.01723e-06
8.04622e-06
8.0672e-06
8.07857e-06
8.07838e-06
8.06449e-06
8.03413e-06
7.98409e-06
7.91079e-06
7.81013e-06
7.67809e-06
7.51077e-06
7.30482e-06
7.05786e-06
6.76945e-06
6.44158e-06
6.07906e-06
5.69001e-06
5.28534e-06
4.87799e-06
4.48127e-06
4.107e-06
3.76392e-06
3.45743e-06
3.18903e-06
2.95835e-06
2.7621e-06
2.59722e-06
2.46048e-06
2.34947e-06
2.25978e-06
2.18843e-06
2.1331e-06
2.09186e-06
2.06287e-06
2.04498e-06
2.03685e-06
2.03808e-06
2.04843e-06
2.06723e-06
2.09583e-06
2.1331e-06
2.18089e-06
2.24008e-06
3.87304e-06
3.95692e-06
4.0664e-06
4.18789e-06
4.32362e-06
4.46835e-06
4.61609e-06
4.76807e-06
4.92169e-06
5.07602e-06
5.23049e-06
5.38463e-06
5.53763e-06
5.6892e-06
5.83905e-06
5.9866e-06
6.13208e-06
6.27485e-06
6.41502e-06
6.55223e-06
6.68677e-06
6.81857e-06
6.94757e-06
7.07374e-06
7.19715e-06
7.31781e-06
7.43575e-06
7.55102e-06
7.66366e-06
7.77378e-06
7.88147e-06
7.98679e-06
8.08979e-06
8.1905e-06
8.28904e-06
8.38547e-06
8.47976e-06
8.57195e-06
8.66214e-06
8.75036e-06
8.83653e-06
8.92067e-06
9.00275e-06
9.08274e-06
9.16064e-06
9.23634e-06
9.30968e-06
9.38055e-06
9.44877e-06
9.51413e-06
9.5764e-06
9.63525e-06
9.69039e-06
9.74135e-06
9.78758e-06
9.82842e-06
9.86293e-06
9.88997e-06
9.90848e-06
9.91683e-06
9.91318e-06
9.89526e-06
9.86044e-06
9.80584e-06
9.72818e-06
9.62419e-06
9.49069e-06
9.32482e-06
9.12436e-06
8.88824e-06
8.61686e-06
8.31236e-06
7.97893e-06
7.6227e-06
7.25152e-06
6.87433e-06
6.50022e-06
6.13748e-06
5.79322e-06
5.47237e-06
5.17873e-06
4.91328e-06
4.67689e-06
4.46885e-06
4.28758e-06
4.13224e-06
4.00137e-06
3.89297e-06
3.80516e-06
3.73557e-06
3.6828e-06
3.64485e-06
3.62118e-06
3.61156e-06
3.61476e-06
3.63318e-06
3.66501e-06
3.71396e-06
3.78121e-06
5.31455e-06
5.38634e-06
5.48496e-06
5.59648e-06
5.72208e-06
5.85638e-06
5.99284e-06
6.13253e-06
6.27296e-06
6.41319e-06
6.5528e-06
6.69146e-06
6.82857e-06
6.96396e-06
7.09752e-06
7.22888e-06
7.35827e-06
7.4852e-06
7.60987e-06
7.73211e-06
7.85213e-06
7.96993e-06
8.08549e-06
8.19881e-06
8.30997e-06
8.41899e-06
8.52592e-06
8.63079e-06
8.73366e-06
8.83458e-06
8.93363e-06
9.03085e-06
9.12628e-06
9.21995e-06
9.31193e-06
9.40226e-06
9.4909e-06
9.57788e-06
9.66325e-06
9.74702e-06
9.82911e-06
9.90952e-06
9.98819e-06
1.00651e-05
1.01402e-05
1.02133e-05
1.02844e-05
1.03532e-05
1.04197e-05
1.04835e-05
1.05446e-05
1.06024e-05
1.06568e-05
1.07073e-05
1.07533e-05
1.07942e-05
1.0829e-05
1.08568e-05
1.08765e-05
1.08867e-05
1.0886e-05
1.08725e-05
1.0844e-05
1.07981e-05
1.07325e-05
1.06446e-05
1.05322e-05
1.03933e-05
1.02267e-05
1.00319e-05
9.80974e-06
9.5621e-06
9.2923e-06
9.00476e-06
8.70482e-06
8.39829e-06
8.09086e-06
7.78767e-06
7.49326e-06
7.21103e-06
6.94403e-06
6.69378e-06
6.46207e-06
6.24965e-06
6.05699e-06
5.88453e-06
5.73207e-06
5.59874e-06
5.48414e-06
5.38751e-06
5.30817e-06
5.24422e-06
5.19532e-06
5.16164e-06
5.14138e-06
5.13797e-06
5.14905e-06
5.1806e-06
5.23372e-06
6.34464e-06
6.39854e-06
6.47631e-06
6.56666e-06
6.66967e-06
6.78105e-06
6.895e-06
7.01222e-06
7.13066e-06
7.24945e-06
7.36826e-06
7.48682e-06
7.60467e-06
7.72167e-06
7.83773e-06
7.95255e-06
8.06625e-06
8.17846e-06
8.28928e-06
8.3986e-06
8.50652e-06
8.613e-06
8.71802e-06
8.82153e-06
8.92356e-06
9.02409e-06
9.12313e-06
9.22068e-06
9.31674e-06
9.41132e-06
9.50446e-06
9.59615e-06
9.6864e-06
9.77523e-06
9.86265e-06
9.94866e-06
1.00332e-05
1.01163e-05
1.0198e-05
1.02781e-05
1.03568e-05
1.04338e-05
1.05092e-05
1.05828e-05
1.06546e-05
1.07245e-05
1.07923e-05
1.08578e-05
1.0921e-05
1.09814e-05
1.10389e-05
1.10931e-05
1.11438e-05
1.11903e-05
1.12323e-05
1.12689e-05
1.12993e-05
1.13226e-05
1.13378e-05
1.13435e-05
1.13385e-05
1.13211e-05
1.12896e-05
1.12421e-05
1.11767e-05
1.10916e-05
1.09854e-05
1.08569e-05
1.07057e-05
1.05322e-05
1.03378e-05
1.01247e-05
9.89594e-06
9.65526e-06
9.40676e-06
9.15455e-06
8.90241e-06
8.65363e-06
8.41101e-06
8.17665e-06
7.95249e-06
7.73965e-06
7.53945e-06
7.3527e-06
7.18015e-06
7.0224e-06
6.87969e-06
6.75191e-06
6.63913e-06
6.54104e-06
6.45732e-06
6.38695e-06
6.32982e-06
6.28612e-06
6.25495e-06
6.23832e-06
6.23448e-06
6.24821e-06
6.28353e-06
6.98917e-06
7.03098e-06
7.09259e-06
7.16594e-06
7.25024e-06
7.34248e-06
7.43796e-06
7.53699e-06
7.63797e-06
7.74009e-06
7.84305e-06
7.94658e-06
8.05031e-06
8.15407e-06
8.25772e-06
8.361e-06
8.46391e-06
8.56612e-06
8.66764e-06
8.76836e-06
8.86829e-06
8.96735e-06
9.06546e-06
9.16257e-06
9.25863e-06
9.3536e-06
9.44743e-06
9.54009e-06
9.63154e-06
9.72176e-06
9.81073e-06
9.89843e-06
9.98483e-06
1.00699e-05
1.01537e-05
1.0236e-05
1.0317e-05
1.03965e-05
1.04745e-05
1.0551e-05
1.06258e-05
1.06989e-05
1.07703e-05
1.08398e-05
1.09072e-05
1.09725e-05
1.10355e-05
1.1096e-05
1.11538e-05
1.12085e-05
1.126e-05
1.13078e-05
1.13516e-05
1.13909e-05
1.1425e-05
1.14533e-05
1.14749e-05
1.1489e-05
1.14944e-05
1.14901e-05
1.14748e-05
1.1447e-05
1.14054e-05
1.13484e-05
1.12747e-05
1.11831e-05
1.10728e-05
1.09436e-05
1.07957e-05
1.06304e-05
1.04493e-05
1.02551e-05
1.00508e-05
9.8395e-06
9.6246e-06
9.40913e-06
9.19571e-06
8.98651e-06
8.7833e-06
8.58742e-06
8.40003e-06
8.22191e-06
8.0539e-06
7.89663e-06
7.75065e-06
7.61641e-06
7.49418e-06
7.38398e-06
7.28593e-06
7.19983e-06
7.12549e-06
7.06228e-06
7.0101e-06
6.96906e-06
6.93863e-06
6.92005e-06
6.91248e-06
6.91859e-06
6.94287e-06
7.37222e-06
7.40861e-06
7.46113e-06
7.52431e-06
7.59684e-06
7.67671e-06
7.76022e-06
7.84739e-06
7.93698e-06
8.02824e-06
8.12087e-06
8.2146e-06
8.30911e-06
8.4042e-06
8.4997e-06
8.59535e-06
8.69107e-06
8.78657e-06
8.88179e-06
8.9766e-06
9.07095e-06
9.16473e-06
9.25786e-06
9.35023e-06
9.44177e-06
9.53241e-06
9.62206e-06
9.71067e-06
9.79817e-06
9.88451e-06
9.96964e-06
1.00535e-05
1.01361e-05
1.02173e-05
1.02971e-05
1.03754e-05
1.04522e-05
1.05274e-05
1.0601e-05
1.06728e-05
1.07428e-05
1.08108e-05
1.08768e-05
1.09406e-05
1.10021e-05
1.10611e-05
1.11173e-05
1.11706e-05
1.12207e-05
1.12674e-05
1.13102e-05
1.13488e-05
1.13827e-05
1.14115e-05
1.14344e-05
1.14508e-05
1.14598e-05
1.14606e-05
1.14521e-05
1.14334e-05
1.14033e-05
1.13606e-05
1.13041e-05
1.12328e-05
1.11459e-05
1.10428e-05
1.09234e-05
1.07882e-05
1.06382e-05
1.04752e-05
1.03012e-05
1.0119e-05
9.93129e-06
9.74103e-06
9.55078e-06
9.36278e-06
9.17887e-06
9.0005e-06
8.82875e-06
8.66448e-06
8.50834e-06
8.36085e-06
8.22245e-06
8.09354e-06
7.97441e-06
7.86531e-06
7.76635e-06
7.67752e-06
7.5988e-06
7.52998e-06
7.47086e-06
7.42094e-06
7.38006e-06
7.34825e-06
7.32511e-06
7.31146e-06
7.3069e-06
7.31349e-06
7.33363e-06
7.60204e-06
7.63722e-06
7.68578e-06
7.7439e-06
7.80995e-06
7.88262e-06
7.95897e-06
8.03886e-06
8.12128e-06
8.20555e-06
8.2914e-06
8.37856e-06
8.46674e-06
8.55574e-06
8.64538e-06
8.7354e-06
8.82569e-06
8.91598e-06
9.00617e-06
9.09612e-06
9.18575e-06
9.27495e-06
9.3636e-06
9.45158e-06
9.53881e-06
9.62518e-06
9.7106e-06
9.79498e-06
9.87823e-06
9.96029e-06
1.00411e-05
1.01205e-05
1.01985e-05
1.02751e-05
1.03501e-05
1.04234e-05
1.0495e-05
1.05648e-05
1.06327e-05
1.06985e-05
1.07622e-05
1.08237e-05
1.08827e-05
1.09392e-05
1.09928e-05
1.10436e-05
1.10911e-05
1.11352e-05
1.11755e-05
1.12117e-05
1.12434e-05
1.12703e-05
1.12918e-05
1.13073e-05
1.13162e-05
1.13179e-05
1.13114e-05
1.12961e-05
1.12709e-05
1.1235e-05
1.11875e-05
1.11276e-05
1.10544e-05
1.09673e-05
1.0866e-05
1.07507e-05
1.06219e-05
1.04807e-05
1.03288e-05
1.01681e-05
1.00011e-05
9.83039e-06
9.65837e-06
9.48741e-06
9.3195e-06
9.15621e-06
8.99876e-06
8.84804e-06
8.70467e-06
8.56911e-06
8.44165e-06
8.32254e-06
8.21193e-06
8.10996e-06
8.0167e-06
7.93218e-06
7.85636e-06
7.78912e-06
7.7303e-06
7.67967e-06
7.63696e-06
7.60177e-06
7.57387e-06
7.55324e-06
7.5396e-06
7.53349e-06
7.53477e-06
7.54495e-06
7.56601e-06
7.75012e-06
7.78615e-06
7.83342e-06
7.88918e-06
7.9517e-06
8.02006e-06
8.09187e-06
8.16692e-06
8.24435e-06
8.32356e-06
8.40432e-06
8.48637e-06
8.56948e-06
8.65343e-06
8.73807e-06
8.82314e-06
8.90852e-06
8.99395e-06
9.07934e-06
9.16453e-06
9.24942e-06
9.3339e-06
9.41784e-06
9.50112e-06
9.58362e-06
9.66524e-06
9.74585e-06
9.82535e-06
9.90365e-06
9.98064e-06
1.00562e-05
1.01303e-05
1.02029e-05
1.02737e-05
1.03428e-05
1.041e-05
1.04752e-05
1.05383e-05
1.05992e-05
1.06577e-05
1.07138e-05
1.07672e-05
1.08177e-05
1.08652e-05
1.09095e-05
1.09503e-05
1.09874e-05
1.10204e-05
1.10491e-05
1.10731e-05
1.10919e-05
1.11052e-05
1.11123e-05
1.11129e-05
1.11061e-05
1.10914e-05
1.10681e-05
1.10354e-05
1.09927e-05
1.09392e-05
1.08743e-05
1.07976e-05
1.07088e-05
1.06079e-05
1.04949e-05
1.03707e-05
1.02363e-05
1.00934e-05
9.94395e-06
9.79007e-06
9.63408e-06
9.47823e-06
9.32457e-06
9.17484e-06
9.03041e-06
8.89226e-06
8.7611e-06
8.63736e-06
8.5213e-06
8.41305e-06
8.31261e-06
8.22001e-06
8.13516e-06
8.058e-06
7.98841e-06
7.92628e-06
7.87145e-06
7.82371e-06
7.78284e-06
7.74858e-06
7.72067e-06
7.69875e-06
7.68263e-06
7.67229e-06
7.66752e-06
7.66878e-06
7.67607e-06
7.69062e-06
7.71423e-06
7.85839e-06
7.8955e-06
7.94232e-06
7.99668e-06
8.05681e-06
8.12203e-06
8.19034e-06
8.26149e-06
8.33474e-06
8.40956e-06
8.48577e-06
8.56313e-06
8.64145e-06
8.72054e-06
8.80025e-06
8.88036e-06
8.96072e-06
9.04111e-06
9.12143e-06
9.20152e-06
9.28127e-06
9.36057e-06
9.43927e-06
9.51727e-06
9.59441e-06
9.67059e-06
9.74566e-06
9.81952e-06
9.89204e-06
9.96312e-06
1.00326e-05
1.01005e-05
1.01665e-05
1.02307e-05
1.02928e-05
1.03528e-05
1.04106e-05
1.04659e-05
1.05186e-05
1.05687e-05
1.06159e-05
1.066e-05
1.07008e-05
1.07382e-05
1.07719e-05
1.08016e-05
1.0827e-05
1.08478e-05
1.08638e-05
1.08744e-05
1.08794e-05
1.08782e-05
1.08703e-05
1.08554e-05
1.08327e-05
1.08018e-05
1.07621e-05
1.07131e-05
1.06543e-05
1.05853e-05
1.05059e-05
1.04161e-05
1.03161e-05
1.02063e-05
1.00876e-05
9.96096e-06
9.8279e-06
9.69028e-06
9.55006e-06
9.40926e-06
9.26982e-06
9.13351e-06
9.00179e-06
8.8758e-06
8.75634e-06
8.64392e-06
8.53879e-06
8.44107e-06
8.35072e-06
8.26763e-06
8.19163e-06
8.12254e-06
8.06015e-06
8.00428e-06
7.95471e-06
7.91126e-06
7.8737e-06
7.84181e-06
7.81535e-06
7.79411e-06
7.77784e-06
7.76626e-06
7.75925e-06
7.75682e-06
7.75888e-06
7.76586e-06
7.77787e-06
7.79602e-06
7.82199e-06
7.94908e-06
7.9866e-06
8.03278e-06
8.08568e-06
8.14356e-06
8.20584e-06
8.27079e-06
8.33816e-06
8.40731e-06
8.47777e-06
8.54939e-06
8.62197e-06
8.69535e-06
8.76938e-06
8.84391e-06
8.91875e-06
8.99375e-06
9.06871e-06
9.14352e-06
9.21805e-06
9.29216e-06
9.36573e-06
9.43864e-06
9.51074e-06
9.5819e-06
9.65198e-06
9.72084e-06
9.78834e-06
9.85437e-06
9.91877e-06
9.98144e-06
1.00422e-05
1.0101e-05
1.01577e-05
1.02121e-05
1.02641e-05
1.03135e-05
1.03602e-05
1.04041e-05
1.04448e-05
1.04824e-05
1.05165e-05
1.05469e-05
1.05735e-05
1.05959e-05
1.0614e-05
1.06273e-05
1.06357e-05
1.06387e-05
1.06361e-05
1.06274e-05
1.06122e-05
1.05902e-05
1.05609e-05
1.0524e-05
1.0479e-05
1.04256e-05
1.03635e-05
1.02926e-05
1.02128e-05
1.01244e-05
1.00276e-05
9.92316e-06
9.81193e-06
9.69507e-06
9.57399e-06
9.45002e-06
9.32498e-06
9.20058e-06
9.07843e-06
8.95996e-06
8.84635e-06
8.7385e-06
8.63701e-06
8.54224e-06
8.45432e-06
8.37323e-06
8.29885e-06
8.23097e-06
8.16936e-06
8.11376e-06
8.06389e-06
8.01951e-06
7.98037e-06
7.94626e-06
7.91697e-06
7.89228e-06
7.872e-06
7.85593e-06
7.84388e-06
7.8357e-06
7.83116e-06
7.83021e-06
7.83295e-06
7.83937e-06
7.84994e-06
7.86485e-06
7.88519e-06
7.91253e-06
8.03314e-06
8.07013e-06
8.11504e-06
8.16602e-06
8.2213e-06
8.28039e-06
8.34176e-06
8.40513e-06
8.46995e-06
8.53581e-06
8.60257e-06
8.6701e-06
8.73825e-06
8.80689e-06
8.87591e-06
8.94511e-06
9.01438e-06
9.08352e-06
9.15241e-06
9.22093e-06
9.28894e-06
9.35633e-06
9.42296e-06
9.48868e-06
9.55335e-06
9.61682e-06
9.67894e-06
9.73957e-06
9.79857e-06
9.85578e-06
9.91107e-06
9.96431e-06
1.00153e-05
1.0064e-05
1.01102e-05
1.01537e-05
1.01944e-05
1.02321e-05
1.02667e-05
1.02979e-05
1.03256e-05
1.03496e-05
1.03696e-05
1.03855e-05
1.03969e-05
1.04037e-05
1.04055e-05
1.04021e-05
1.03933e-05
1.03786e-05
1.03579e-05
1.03307e-05
1.02969e-05
1.02562e-05
1.02084e-05
1.01532e-05
1.00906e-05
1.00206e-05
9.94342e-06
9.85929e-06
9.76873e-06
9.67241e-06
9.57122e-06
9.46622e-06
9.35867e-06
9.24994e-06
9.1413e-06
9.03408e-06
8.92956e-06
8.82885e-06
8.73284e-06
8.64221e-06
8.55738e-06
8.47859e-06
8.4059e-06
8.33923e-06
8.2784e-06
8.2232e-06
8.17335e-06
8.12858e-06
8.08863e-06
8.0532e-06
8.02206e-06
7.995e-06
7.9718e-06
7.9523e-06
7.93633e-06
7.92371e-06
7.91432e-06
7.90801e-06
7.90468e-06
7.9042e-06
7.90659e-06
7.91201e-06
7.92052e-06
7.93266e-06
7.9487e-06
7.96971e-06
7.99725e-06
8.11579e-06
8.15132e-06
8.19425e-06
8.2427e-06
8.29493e-06
8.35045e-06
8.40787e-06
8.46693e-06
8.52712e-06
8.58807e-06
8.6497e-06
8.71187e-06
8.7745e-06
8.83747e-06
8.90067e-06
8.96395e-06
9.02717e-06
9.09018e-06
9.15285e-06
9.21506e-06
9.27667e-06
9.33756e-06
9.3976e-06
9.45664e-06
9.51452e-06
9.57109e-06
9.6262e-06
9.67968e-06
9.73139e-06
9.78117e-06
9.82889e-06
9.87438e-06
9.91749e-06
9.95808e-06
9.99598e-06
1.0031e-05
1.00631e-05
1.0092e-05
1.01175e-05
1.01396e-05
1.01579e-05
1.01723e-05
1.01826e-05
1.01886e-05
1.01902e-05
1.0187e-05
1.01789e-05
1.01656e-05
1.0147e-05
1.01228e-05
1.00929e-05
1.00571e-05
1.00152e-05
9.96719e-06
9.91305e-06
9.85283e-06
9.78668e-06
9.71486e-06
9.63775e-06
9.55589e-06
9.46994e-06
9.38072e-06
9.28915e-06
9.19628e-06
9.10319e-06
9.01099e-06
8.92074e-06
8.83325e-06
8.74934e-06
8.66964e-06
8.59463e-06
8.52462e-06
8.45974e-06
8.40002e-06
8.34535e-06
8.29559e-06
8.25051e-06
8.20988e-06
8.17344e-06
8.14093e-06
8.11212e-06
8.08675e-06
8.06463e-06
8.04558e-06
8.02945e-06
8.0161e-06
8.0054e-06
7.99724e-06
7.99152e-06
7.98817e-06
7.98714e-06
7.98835e-06
7.99188e-06
7.99796e-06
8.00672e-06
8.01877e-06
8.03442e-06
8.05477e-06
8.08132e-06
8.1995e-06
8.23276e-06
8.27306e-06
8.31845e-06
8.36717e-06
8.41874e-06
8.47189e-06
8.52634e-06
8.58163e-06
8.63744e-06
8.69369e-06
8.7503e-06
8.8072e-06
8.8643e-06
8.9215e-06
8.97867e-06
9.03569e-06
9.09241e-06
9.14871e-06
9.20447e-06
9.25956e-06
9.31386e-06
9.36723e-06
9.41951e-06
9.47055e-06
9.52019e-06
9.56828e-06
9.61465e-06
9.65914e-06
9.70161e-06
9.7419e-06
9.77986e-06
9.81534e-06
9.84818e-06
9.87823e-06
9.90534e-06
9.92936e-06
9.95012e-06
9.96747e-06
9.98125e-06
9.99131e-06
9.99747e-06
9.99958e-06
9.99747e-06
9.991e-06
9.98001e-06
9.96435e-06
9.9439e-06
9.91854e-06
9.88817e-06
9.85274e-06
9.81223e-06
9.76664e-06
9.71608e-06
9.66069e-06
9.60068e-06
9.5364e-06
9.46823e-06
9.39671e-06
9.32241e-06
9.24606e-06
9.1684e-06
9.09027e-06
9.0125e-06
8.93593e-06
8.86133e-06
8.78943e-06
8.72066e-06
8.65545e-06
8.59412e-06
8.53686e-06
8.48376e-06
8.43481e-06
8.38995e-06
8.34902e-06
8.31187e-06
8.27829e-06
8.24807e-06
8.221e-06
8.19686e-06
8.17547e-06
8.15662e-06
8.14016e-06
8.12597e-06
8.11391e-06
8.10392e-06
8.0959e-06
8.08976e-06
8.08548e-06
8.083e-06
8.08233e-06
8.08344e-06
8.08646e-06
8.09167e-06
8.09927e-06
8.10992e-06
8.12397e-06
8.14257e-06
8.16718e-06
8.28556e-06
8.31589e-06
8.35302e-06
8.39489e-06
8.43975e-06
8.48709e-06
8.53571e-06
8.58535e-06
8.63556e-06
8.68607e-06
8.73682e-06
8.78777e-06
8.83885e-06
8.89001e-06
8.94118e-06
8.99222e-06
9.04303e-06
9.09349e-06
9.14346e-06
9.19284e-06
9.24151e-06
9.28933e-06
9.33617e-06
9.38188e-06
9.4263e-06
9.46928e-06
9.51065e-06
9.55026e-06
9.58794e-06
9.62356e-06
9.65696e-06
9.68799e-06
9.7165e-06
9.74237e-06
9.76543e-06
9.78557e-06
9.80263e-06
9.81648e-06
9.82701e-06
9.83406e-06
9.83753e-06
9.83728e-06
9.83321e-06
9.82522e-06
9.8132e-06
9.79709e-06
9.7768e-06
9.75231e-06
9.72359e-06
9.69066e-06
9.65356e-06
9.61239e-06
9.56729e-06
9.51846e-06
9.46615e-06
9.41069e-06
9.35246e-06
9.29192e-06
9.22958e-06
9.16601e-06
9.10181e-06
9.03761e-06
8.97404e-06
8.91169e-06
8.85113e-06
8.79285e-06
8.73727e-06
8.68457e-06
8.63493e-06
8.58846e-06
8.54521e-06
8.50517e-06
8.46827e-06
8.43441e-06
8.40345e-06
8.37526e-06
8.34968e-06
8.32653e-06
8.30565e-06
8.28688e-06
8.27007e-06
8.25507e-06
8.24177e-06
8.23007e-06
8.21991e-06
8.21123e-06
8.20397e-06
8.1981e-06
8.1936e-06
8.19047e-06
8.18875e-06
8.18844e-06
8.18973e-06
8.19293e-06
8.1983e-06
8.20655e-06
8.21809e-06
8.23407e-06
8.25599e-06
8.37473e-06
8.40162e-06
8.43516e-06
8.47321e-06
8.51395e-06
8.55688e-06
8.60083e-06
8.64555e-06
8.69062e-06
8.7358e-06
8.78105e-06
8.82636e-06
8.87169e-06
8.917e-06
8.96223e-06
9.00729e-06
9.05208e-06
9.09647e-06
9.14035e-06
9.18363e-06
9.22618e-06
9.26787e-06
9.30857e-06
9.34815e-06
9.38643e-06
9.42327e-06
9.45851e-06
9.492e-06
9.52359e-06
9.55314e-06
9.5805e-06
9.60554e-06
9.62813e-06
9.64815e-06
9.66546e-06
9.67996e-06
9.69154e-06
9.70008e-06
9.70549e-06
9.70769e-06
9.70658e-06
9.70209e-06
9.69417e-06
9.68277e-06
9.66785e-06
9.64941e-06
9.62745e-06
9.602e-06
9.57312e-06
9.54091e-06
9.50549e-06
9.46702e-06
9.42572e-06
9.38184e-06
9.33568e-06
9.28756e-06
9.23788e-06
9.18704e-06
9.1355e-06
9.0837e-06
9.03212e-06
8.9812e-06
8.93139e-06
8.88307e-06
8.83658e-06
8.7922e-06
8.75014e-06
8.71039e-06
8.67302e-06
8.63802e-06
8.60539e-06
8.57505e-06
8.54693e-06
8.52093e-06
8.49696e-06
8.47489e-06
8.45462e-06
8.43602e-06
8.41896e-06
8.40332e-06
8.38902e-06
8.37592e-06
8.36395e-06
8.35306e-06
8.3432e-06
8.33435e-06
8.32649e-06
8.31959e-06
8.31369e-06
8.30881e-06
8.305e-06
8.30231e-06
8.30096e-06
8.3013e-06
8.30365e-06
8.30874e-06
8.31705e-06
8.32977e-06
8.3484e-06
8.46761e-06
8.49068e-06
8.52035e-06
8.55437e-06
8.59087e-06
8.6293e-06
8.66856e-06
8.70838e-06
8.74836e-06
8.78829e-06
8.82818e-06
8.86801e-06
8.90778e-06
8.94747e-06
8.98705e-06
9.02642e-06
9.06552e-06
9.10423e-06
9.14245e-06
9.18008e-06
9.21702e-06
9.25313e-06
9.2883e-06
9.32238e-06
9.35523e-06
9.3867e-06
9.41663e-06
9.44489e-06
9.47134e-06
9.49585e-06
9.51829e-06
9.53853e-06
9.55647e-06
9.57201e-06
9.58503e-06
9.59546e-06
9.60321e-06
9.6082e-06
9.61038e-06
9.60969e-06
9.6061e-06
9.59956e-06
9.59007e-06
9.57764e-06
9.56228e-06
9.54403e-06
9.52295e-06
9.49912e-06
9.47266e-06
9.4437e-06
9.4124e-06
9.37896e-06
9.34361e-06
9.3066e-06
9.2682e-06
9.22873e-06
9.18851e-06
9.14787e-06
9.10716e-06
9.06671e-06
9.02686e-06
8.98789e-06
8.9501e-06
8.91369e-06
8.87887e-06
8.84576e-06
8.81441e-06
8.78474e-06
8.75673e-06
8.73035e-06
8.70555e-06
8.68224e-06
8.66036e-06
8.63983e-06
8.62057e-06
8.60251e-06
8.58557e-06
8.56966e-06
8.55469e-06
8.54057e-06
8.52726e-06
8.51464e-06
8.5027e-06
8.49138e-06
8.48068e-06
8.4706e-06
8.46113e-06
8.45228e-06
8.44411e-06
8.43666e-06
8.43001e-06
8.42423e-06
8.41956e-06
8.41641e-06
8.41513e-06
8.4165e-06
8.42104e-06
8.42999e-06
8.44489e-06
8.56477e-06
8.58373e-06
8.60937e-06
8.63925e-06
8.67149e-06
8.70547e-06
8.74011e-06
8.77516e-06
8.81022e-06
8.84512e-06
8.87989e-06
8.91453e-06
8.94906e-06
8.9835e-06
9.01783e-06
9.05197e-06
9.08587e-06
9.11942e-06
9.15255e-06
9.18516e-06
9.21715e-06
9.2484e-06
9.2788e-06
9.30821e-06
9.3365e-06
9.36352e-06
9.38913e-06
9.41321e-06
9.43563e-06
9.45627e-06
9.47502e-06
9.49178e-06
9.50646e-06
9.51897e-06
9.52923e-06
9.53719e-06
9.54278e-06
9.54597e-06
9.54671e-06
9.54501e-06
9.54083e-06
9.5342e-06
9.52514e-06
9.51367e-06
9.49986e-06
9.48378e-06
9.46552e-06
9.44518e-06
9.42289e-06
9.39881e-06
9.3731e-06
9.34596e-06
9.31758e-06
9.2882e-06
9.25805e-06
9.22737e-06
9.19642e-06
9.16546e-06
9.13471e-06
9.10441e-06
9.07478e-06
9.046e-06
9.01821e-06
8.99155e-06
8.96609e-06
8.94187e-06
8.91881e-06
8.89682e-06
8.87585e-06
8.85584e-06
8.83672e-06
8.81841e-06
8.80086e-06
8.78401e-06
8.7678e-06
8.75219e-06
8.73713e-06
8.72255e-06
8.70841e-06
8.69465e-06
8.68123e-06
8.66808e-06
8.65521e-06
8.64257e-06
8.63019e-06
8.61809e-06
8.60628e-06
8.5948e-06
8.58372e-06
8.5731e-06
8.56304e-06
8.55365e-06
8.54516e-06
8.53804e-06
8.53267e-06
8.52988e-06
8.53026e-06
8.53507e-06
8.54591e-06
8.66673e-06
8.68143e-06
8.70296e-06
8.72873e-06
8.75677e-06
8.78643e-06
8.81665e-06
8.84714e-06
8.87756e-06
8.90775e-06
8.93774e-06
8.96759e-06
8.99733e-06
9.027e-06
9.05659e-06
9.08605e-06
9.11535e-06
9.1444e-06
9.17313e-06
9.20145e-06
9.22927e-06
9.25648e-06
9.28298e-06
9.30864e-06
9.33332e-06
9.3569e-06
9.37926e-06
9.40027e-06
9.41983e-06
9.43782e-06
9.45415e-06
9.46874e-06
9.4815e-06
9.49239e-06
9.50134e-06
9.50831e-06
9.51326e-06
9.51618e-06
9.51706e-06
9.51591e-06
9.51273e-06
9.50757e-06
9.50045e-06
9.49145e-06
9.48062e-06
9.46806e-06
9.45385e-06
9.43813e-06
9.421e-06
9.40262e-06
9.38313e-06
9.3627e-06
9.3415e-06
9.31971e-06
9.29751e-06
9.27509e-06
9.25263e-06
9.23031e-06
9.20828e-06
9.18669e-06
9.16566e-06
9.14529e-06
9.12565e-06
9.10679e-06
9.08871e-06
9.07142e-06
9.05471e-06
9.03853e-06
9.0228e-06
9.00745e-06
8.99239e-06
8.97757e-06
8.96294e-06
8.94845e-06
8.93407e-06
8.91977e-06
8.90553e-06
8.8913e-06
8.87708e-06
8.86281e-06
8.84849e-06
8.83407e-06
8.81955e-06
8.80495e-06
8.79028e-06
8.77558e-06
8.76089e-06
8.74627e-06
8.7318e-06
8.71756e-06
8.70368e-06
8.69026e-06
8.67758e-06
8.66612e-06
8.65633e-06
8.64906e-06
8.64496e-06
8.64535e-06
8.65191e-06
8.77407e-06
8.78441e-06
8.80186e-06
8.82361e-06
8.84763e-06
8.87319e-06
8.89924e-06
8.9255e-06
8.95163e-06
8.9775e-06
9.00317e-06
9.02871e-06
9.05417e-06
9.07962e-06
9.10508e-06
9.13051e-06
9.15589e-06
9.18116e-06
9.20624e-06
9.23106e-06
9.25554e-06
9.27959e-06
9.30309e-06
9.32594e-06
9.34801e-06
9.36918e-06
9.38933e-06
9.40836e-06
9.42617e-06
9.44266e-06
9.45775e-06
9.47137e-06
9.48346e-06
9.49397e-06
9.50286e-06
9.5101e-06
9.51568e-06
9.51959e-06
9.52183e-06
9.52244e-06
9.52142e-06
9.51883e-06
9.51472e-06
9.50914e-06
9.50218e-06
9.49391e-06
9.48442e-06
9.47383e-06
9.46224e-06
9.44977e-06
9.43654e-06
9.42269e-06
9.40834e-06
9.39365e-06
9.37872e-06
9.36371e-06
9.34873e-06
9.33388e-06
9.31927e-06
9.30498e-06
9.29106e-06
9.27756e-06
9.26448e-06
9.25182e-06
9.23955e-06
9.22762e-06
9.21577e-06
9.20397e-06
9.19212e-06
9.18014e-06
9.16795e-06
9.1555e-06
9.14275e-06
9.12965e-06
9.1162e-06
9.10238e-06
9.08818e-06
9.07359e-06
9.0586e-06
9.04319e-06
9.02739e-06
9.01113e-06
8.99447e-06
8.97741e-06
8.95998e-06
8.94225e-06
8.92427e-06
8.90612e-06
8.8879e-06
8.86971e-06
8.85168e-06
8.83393e-06
8.81678e-06
8.80071e-06
8.78623e-06
8.77424e-06
8.76545e-06
8.76124e-06
8.76337e-06
8.88734e-06
8.89333e-06
8.90678e-06
8.92469e-06
8.94492e-06
8.96667e-06
8.98889e-06
9.0113e-06
9.03356e-06
9.05558e-06
9.07742e-06
9.09919e-06
9.12096e-06
9.1428e-06
9.16477e-06
9.18685e-06
9.20903e-06
9.23124e-06
9.25345e-06
9.27559e-06
9.29757e-06
9.31931e-06
9.34071e-06
9.36166e-06
9.38205e-06
9.40177e-06
9.4207e-06
9.43875e-06
9.45582e-06
9.47183e-06
9.48671e-06
9.5004e-06
9.51283e-06
9.52399e-06
9.53382e-06
9.54232e-06
9.54948e-06
9.5553e-06
9.5598e-06
9.56299e-06
9.56491e-06
9.5656e-06
9.56511e-06
9.5635e-06
9.56083e-06
9.55718e-06
9.55263e-06
9.54726e-06
9.54117e-06
9.53444e-06
9.52717e-06
9.51946e-06
9.51141e-06
9.50311e-06
9.49466e-06
9.48612e-06
9.47759e-06
9.46911e-06
9.46075e-06
9.45253e-06
9.44446e-06
9.43654e-06
9.42874e-06
9.42102e-06
9.41332e-06
9.40555e-06
9.39743e-06
9.38892e-06
9.37993e-06
9.37037e-06
9.36017e-06
9.34926e-06
9.33762e-06
9.3252e-06
9.31202e-06
9.29806e-06
9.28333e-06
9.26784e-06
9.25159e-06
9.23458e-06
9.21684e-06
9.19835e-06
9.17915e-06
9.15925e-06
9.13872e-06
9.11763e-06
9.09605e-06
9.07408e-06
9.05183e-06
9.02942e-06
9.00699e-06
8.98469e-06
8.96284e-06
8.94196e-06
8.9226e-06
8.90571e-06
8.89209e-06
8.88315e-06
8.88077e-06
9.00708e-06
9.00878e-06
9.0184e-06
9.0327e-06
9.04943e-06
9.0677e-06
9.08649e-06
9.10547e-06
9.12434e-06
9.14301e-06
9.16156e-06
9.18012e-06
9.1988e-06
9.21767e-06
9.23681e-06
9.25622e-06
9.2759e-06
9.29581e-06
9.3159e-06
9.33612e-06
9.35639e-06
9.37663e-06
9.39675e-06
9.41665e-06
9.4362e-06
9.45531e-06
9.47388e-06
9.4918e-06
9.50899e-06
9.52538e-06
9.54088e-06
9.55546e-06
9.56905e-06
9.58162e-06
9.59316e-06
9.60363e-06
9.61305e-06
9.62141e-06
9.62872e-06
9.63501e-06
9.64031e-06
9.64465e-06
9.64808e-06
9.65064e-06
9.65239e-06
9.65339e-06
9.6537e-06
9.65339e-06
9.65253e-06
9.65117e-06
9.64941e-06
9.64729e-06
9.64488e-06
9.64226e-06
9.63946e-06
9.63654e-06
9.63353e-06
9.63046e-06
9.62734e-06
9.62417e-06
9.62093e-06
9.61757e-06
9.61406e-06
9.6103e-06
9.60623e-06
9.60169e-06
9.59644e-06
9.59042e-06
9.58354e-06
9.57569e-06
9.56681e-06
9.55683e-06
9.54573e-06
9.53347e-06
9.52006e-06
9.50551e-06
9.48983e-06
9.47304e-06
9.45515e-06
9.43619e-06
9.41619e-06
9.39515e-06
9.3731e-06
9.35009e-06
9.32619e-06
9.30148e-06
9.27605e-06
9.25002e-06
9.22353e-06