/*--------------------------------*- C++ -*----------------------------------*\
  =========                 |
  \\      /  F ield         | OpenFOAM: The Open Source CFD Toolbox
   \\    /   O peration     | Website:  https://openfoam.org
    \\  /    A nd           | Version:  8
     \\/     M anipulation  |
\*---------------------------------------------------------------------------*/
FoamFile
{
    version     2.0;
    format      ascii;
    class       volScalarField;
    location    "10000";
    object      k_0;
}
// * * * * * * * * * * * * * * * * * * * * * * * * * * * * * * * * * * * * * //

dimensions      [0 2 -2 0 0 0 0];

internalField   nonuniform List<scalar> 
14751
(
5.61751e-09
5.85733e-09
6.12692e-09
6.40249e-09
6.69348e-09
6.99615e-09
7.30581e-09
7.62811e-09
7.95832e-09
8.30168e-09
8.65319e-09
9.01613e-09
9.3873e-09
9.76461e-09
1.01502e-08
1.05414e-08
1.09396e-08
1.13406e-08
1.17476e-08
1.2158e-08
1.25746e-08
1.29958e-08
1.34217e-08
1.38512e-08
1.42868e-08
1.47272e-08
1.51712e-08
1.5619e-08
1.60688e-08
1.65213e-08
1.69765e-08
1.7434e-08
1.78936e-08
1.83542e-08
1.88153e-08
1.92769e-08
1.97358e-08
2.01929e-08
2.06462e-08
2.10956e-08
2.15369e-08
2.19712e-08
2.23994e-08
2.28169e-08
2.32243e-08
2.36185e-08
2.39977e-08
2.43607e-08
2.47039e-08
2.50252e-08
2.53219e-08
2.55913e-08
2.5831e-08
2.60367e-08
2.6205e-08
2.63327e-08
2.64178e-08
2.64568e-08
2.64311e-08
2.63262e-08
2.61319e-08
2.58278e-08
2.53957e-08
2.48158e-08
2.40661e-08
2.31366e-08
2.20238e-08
2.07367e-08
1.92962e-08
1.77426e-08
1.6128e-08
1.45095e-08
1.29442e-08
1.1479e-08
1.01472e-08
8.96713e-09
7.94442e-09
7.07623e-09
6.35512e-09
5.77113e-09
5.30753e-09
4.94473e-09
4.66716e-09
4.45662e-09
4.30212e-09
4.1937e-09
4.12475e-09
4.09026e-09
4.08644e-09
4.11027e-09
4.16003e-09
4.23388e-09
4.33127e-09
4.45176e-09
4.59378e-09
4.75886e-09
4.94277e-09
5.14504e-09
5.3652e-09
1.05517e-07
1.09893e-07
1.14793e-07
1.19774e-07
1.25013e-07
1.30448e-07
1.3599e-07
1.41698e-07
1.47537e-07
1.53598e-07
1.59797e-07
1.66184e-07
1.72715e-07
1.79354e-07
1.86137e-07
1.93023e-07
2.00029e-07
2.07087e-07
2.14247e-07
2.21474e-07
2.28809e-07
2.36227e-07
2.43726e-07
2.51296e-07
2.58975e-07
2.66736e-07
2.74561e-07
2.82453e-07
2.90381e-07
2.9836e-07
3.0639e-07
3.14463e-07
3.22573e-07
3.30707e-07
3.38853e-07
3.47005e-07
3.55115e-07
3.63199e-07
3.7122e-07
3.79169e-07
3.86984e-07
3.94686e-07
4.02286e-07
4.09711e-07
4.16967e-07
4.23998e-07
4.30775e-07
4.37273e-07
4.43434e-07
4.49219e-07
4.54581e-07
4.59472e-07
4.63847e-07
4.67635e-07
4.70773e-07
4.73203e-07
4.74883e-07
4.75741e-07
4.75448e-07
4.73759e-07
4.70476e-07
4.65243e-07
4.57724e-07
4.47562e-07
4.34373e-07
4.17975e-07
3.98298e-07
3.75488e-07
3.49909e-07
3.22265e-07
2.93468e-07
2.64534e-07
2.3648e-07
2.10157e-07
1.86186e-07
1.6492e-07
1.46481e-07
1.30812e-07
1.17776e-07
1.07211e-07
9.88182e-08
9.22438e-08
8.72128e-08
8.34004e-08
8.06114e-08
7.86669e-08
7.74487e-08
7.68658e-08
7.68496e-08
7.73448e-08
7.83199e-08
7.97412e-08
8.15974e-08
8.38781e-08
8.65512e-08
8.96431e-08
9.30714e-08
9.68229e-08
1.0088e-07
4.2343e-07
4.40248e-07
4.5973e-07
4.80099e-07
5.02022e-07
5.25085e-07
5.48837e-07
5.73528e-07
5.98938e-07
6.25054e-07
6.51903e-07
6.79672e-07
7.08247e-07
7.37447e-07
7.67376e-07
7.97909e-07
8.2903e-07
8.60498e-07
8.92467e-07
9.24808e-07
9.57616e-07
9.90798e-07
1.02432e-06
1.05814e-06
1.09235e-06
1.12684e-06
1.16156e-06
1.19648e-06
1.23149e-06
1.26663e-06
1.30189e-06
1.33721e-06
1.37259e-06
1.40794e-06
1.44322e-06
1.47839e-06
1.5133e-06
1.548e-06
1.58232e-06
1.61621e-06
1.64951e-06
1.68224e-06
1.71443e-06
1.74583e-06
1.7764e-06
1.80597e-06
1.83439e-06
1.86155e-06
1.88728e-06
1.91144e-06
1.93385e-06
1.9543e-06
1.97262e-06
1.98853e-06
2.00176e-06
2.01207e-06
2.01922e-06
2.02285e-06
2.02173e-06
2.01489e-06
2.00145e-06
1.98002e-06
1.94921e-06
1.90759e-06
1.85362e-06
1.78643e-06
1.7056e-06
1.61157e-06
1.50566e-06
1.39055e-06
1.26988e-06
1.14781e-06
1.02864e-06
9.16112e-07
8.13071e-07
7.21271e-07
6.4142e-07
5.73383e-07
5.16555e-07
4.69852e-07
4.32437e-07
4.0278e-07
3.79727e-07
3.61882e-07
3.4841e-07
3.38527e-07
3.3171e-07
3.27554e-07
3.25747e-07
3.26032e-07
3.2825e-07
3.32234e-07
3.37932e-07
3.45304e-07
3.54232e-07
3.64869e-07
3.76944e-07
3.90545e-07
4.05711e-07
1.11729e-06
1.15791e-06
1.20685e-06
1.25946e-06
1.31729e-06
1.37896e-06
1.44297e-06
1.51001e-06
1.57934e-06
1.65086e-06
1.7245e-06
1.80013e-06
1.87748e-06
1.95665e-06
2.03779e-06
2.12075e-06
2.20512e-06
2.29037e-06
2.3767e-06
2.4638e-06
2.55166e-06
2.64001e-06
2.7287e-06
2.81755e-06
2.9066e-06
2.99561e-06
3.08443e-06
3.17291e-06
3.26087e-06
3.34827e-06
3.43508e-06
3.52117e-06
3.60651e-06
3.69096e-06
3.77438e-06
3.8567e-06
3.93772e-06
4.01755e-06
4.09587e-06
4.17255e-06
4.24741e-06
4.3204e-06
4.39141e-06
4.46031e-06
4.52706e-06
4.59141e-06
4.65313e-06
4.71204e-06
4.76789e-06
4.82043e-06
4.86937e-06
4.91434e-06
4.95504e-06
4.99096e-06
5.02157e-06
5.04631e-06
5.06449e-06
5.0753e-06
5.07667e-06
5.0667e-06
5.04341e-06
5.00403e-06
4.94555e-06
4.86468e-06
4.75784e-06
4.6221e-06
4.45515e-06
4.256e-06
4.02548e-06
3.76718e-06
3.48741e-06
3.19475e-06
2.8994e-06
2.61167e-06
2.34073e-06
2.09352e-06
1.87424e-06
1.68431e-06
1.52322e-06
1.38867e-06
1.27805e-06
1.18792e-06
1.11637e-06
1.05949e-06
1.01506e-06
9.80796e-07
9.55186e-07
9.37043e-07
9.25435e-07
9.1956e-07
9.18907e-07
9.22925e-07
9.31449e-07
9.44373e-07
9.61399e-07
9.83067e-07
1.00879e-06
1.03916e-06
1.07452e-06
2.31526e-06
2.38588e-06
2.47433e-06
2.57133e-06
2.6793e-06
2.79496e-06
2.91458e-06
3.03934e-06
3.16746e-06
3.29839e-06
3.43174e-06
3.56712e-06
3.7038e-06
3.84154e-06
3.97989e-06
4.11812e-06
4.25637e-06
4.39403e-06
4.53109e-06
4.66728e-06
4.80215e-06
4.93539e-06
5.06678e-06
5.19612e-06
5.32342e-06
5.44848e-06
5.57122e-06
5.69157e-06
5.80944e-06
5.92488e-06
6.03793e-06
6.14861e-06
6.25698e-06
6.36307e-06
6.46678e-06
6.56811e-06
6.66699e-06
6.76337e-06
6.85738e-06
6.94903e-06
7.03822e-06
7.12495e-06
7.20921e-06
7.29092e-06
7.37012e-06
7.44665e-06
7.52033e-06
7.59104e-06
7.65856e-06
7.72271e-06
7.78319e-06
7.83967e-06
7.89186e-06
7.93925e-06
7.98126e-06
8.01723e-06
8.04622e-06
8.0672e-06
8.07858e-06
8.07838e-06
8.0645e-06
8.03414e-06
7.9841e-06
7.9108e-06
7.81013e-06
7.6781e-06
7.51078e-06
7.30483e-06
7.05787e-06
6.76946e-06
6.44159e-06
6.07907e-06
5.69002e-06
5.28536e-06
4.878e-06
4.48128e-06
4.10701e-06
3.76393e-06
3.45744e-06
3.18903e-06
2.95835e-06
2.76211e-06
2.59723e-06
2.46049e-06
2.34948e-06
2.25978e-06
2.18844e-06
2.13311e-06
2.09186e-06
2.06287e-06
2.04498e-06
2.03685e-06
2.03808e-06
2.04843e-06
2.06723e-06
2.09583e-06
2.13311e-06
2.18089e-06
2.24008e-06
3.87304e-06
3.95692e-06
4.0664e-06
4.18789e-06
4.32362e-06
4.46836e-06
4.61609e-06
4.76807e-06
4.92169e-06
5.07602e-06
5.23049e-06
5.38463e-06
5.53763e-06
5.6892e-06
5.83905e-06
5.9866e-06
6.13208e-06
6.27485e-06
6.41502e-06
6.55223e-06
6.68677e-06
6.81857e-06
6.94757e-06
7.07374e-06
7.19715e-06
7.31781e-06
7.43575e-06
7.55102e-06
7.66366e-06
7.77378e-06
7.88147e-06
7.98679e-06
8.08979e-06
8.1905e-06
8.28904e-06
8.38547e-06
8.47976e-06
8.57195e-06
8.66214e-06
8.75036e-06
8.83653e-06
8.92067e-06
9.00275e-06
9.08274e-06
9.16064e-06
9.23634e-06
9.30968e-06
9.38056e-06
9.44877e-06
9.51413e-06
9.5764e-06
9.63525e-06
9.69039e-06
9.74135e-06
9.78759e-06
9.82842e-06
9.86294e-06
9.88997e-06
9.90849e-06
9.91683e-06
9.91318e-06
9.89526e-06
9.86045e-06
9.80585e-06
9.72819e-06
9.6242e-06
9.4907e-06
9.32483e-06
9.12437e-06
8.88825e-06
8.61687e-06
8.31237e-06
7.97895e-06
7.62271e-06
7.25153e-06
6.87434e-06
6.50023e-06
6.13749e-06
5.79324e-06
5.47238e-06
5.17874e-06
4.91328e-06
4.6769e-06
4.46886e-06
4.28758e-06
4.13225e-06
4.00138e-06
3.89298e-06
3.80517e-06
3.73558e-06
3.6828e-06
3.64486e-06
3.62119e-06
3.61156e-06
3.61476e-06
3.63318e-06
3.66501e-06
3.71396e-06
3.78121e-06
5.31456e-06
5.38634e-06
5.48496e-06
5.59649e-06
5.72208e-06
5.85638e-06
5.99284e-06
6.13253e-06
6.27296e-06
6.41319e-06
6.5528e-06
6.69146e-06
6.82857e-06
6.96396e-06
7.09752e-06
7.22888e-06
7.35827e-06
7.4852e-06
7.60987e-06
7.73211e-06
7.85213e-06
7.96993e-06
8.08549e-06
8.19881e-06
8.30997e-06
8.41899e-06
8.52592e-06
8.63079e-06
8.73366e-06
8.83458e-06
8.93363e-06
9.03085e-06
9.12628e-06
9.21995e-06
9.31193e-06
9.40226e-06
9.4909e-06
9.57788e-06
9.66325e-06
9.74702e-06
9.82911e-06
9.90952e-06
9.9882e-06
1.00651e-05
1.01402e-05
1.02133e-05
1.02844e-05
1.03532e-05
1.04197e-05
1.04835e-05
1.05446e-05
1.06024e-05
1.06568e-05
1.07073e-05
1.07533e-05
1.07942e-05
1.0829e-05
1.08568e-05
1.08765e-05
1.08867e-05
1.0886e-05
1.08725e-05
1.0844e-05
1.07981e-05
1.07325e-05
1.06446e-05
1.05322e-05
1.03933e-05
1.02267e-05
1.00319e-05
9.80974e-06
9.56211e-06
9.29231e-06
9.00477e-06
8.70483e-06
8.3983e-06
8.09087e-06
7.78768e-06
7.49327e-06
7.21104e-06
6.94403e-06
6.69379e-06
6.46208e-06
6.24966e-06
6.057e-06
5.88453e-06
5.73208e-06
5.59874e-06
5.48415e-06
5.38752e-06
5.30818e-06
5.24422e-06
5.19533e-06
5.16165e-06
5.14138e-06
5.13798e-06
5.14906e-06
5.1806e-06
5.23373e-06
6.34464e-06
6.39854e-06
6.47631e-06
6.56666e-06
6.66967e-06
6.78105e-06
6.895e-06
7.01222e-06
7.13066e-06
7.24945e-06
7.36826e-06
7.48682e-06
7.60467e-06
7.72167e-06
7.83773e-06
7.95255e-06
8.06625e-06
8.17846e-06
8.28928e-06
8.3986e-06
8.50652e-06
8.613e-06
8.71802e-06
8.82153e-06
8.92356e-06
9.02409e-06
9.12313e-06
9.22068e-06
9.31674e-06
9.41132e-06
9.50446e-06
9.59615e-06
9.6864e-06
9.77523e-06
9.86265e-06
9.94866e-06
1.00332e-05
1.01163e-05
1.0198e-05
1.02781e-05
1.03568e-05
1.04338e-05
1.05092e-05
1.05828e-05
1.06546e-05
1.07245e-05
1.07923e-05
1.08579e-05
1.0921e-05
1.09814e-05
1.10389e-05
1.10932e-05
1.11438e-05
1.11903e-05
1.12323e-05
1.12689e-05
1.12993e-05
1.13226e-05
1.13378e-05
1.13435e-05
1.13385e-05
1.13211e-05
1.12896e-05
1.12421e-05
1.11767e-05
1.10916e-05
1.09854e-05
1.08569e-05
1.07057e-05
1.05323e-05
1.03379e-05
1.01247e-05
9.89595e-06
9.65527e-06
9.40677e-06
9.15456e-06
8.90242e-06
8.65364e-06
8.41102e-06
8.17666e-06
7.9525e-06
7.73965e-06
7.53945e-06
7.35271e-06
7.18016e-06
7.0224e-06
6.87969e-06
6.75191e-06
6.63913e-06
6.54104e-06
6.45732e-06
6.38695e-06
6.32983e-06
6.28613e-06
6.25495e-06
6.23833e-06
6.23448e-06
6.24822e-06
6.28354e-06
6.98917e-06
7.03098e-06
7.09259e-06
7.16594e-06
7.25024e-06
7.34248e-06
7.43796e-06
7.53699e-06
7.63797e-06
7.74009e-06
7.84305e-06
7.94658e-06
8.05032e-06
8.15407e-06
8.25773e-06
8.361e-06
8.46391e-06
8.56612e-06
8.66764e-06
8.76836e-06
8.86829e-06
8.96735e-06
9.06546e-06
9.16257e-06
9.25863e-06
9.3536e-06
9.44743e-06
9.54009e-06
9.63154e-06
9.72176e-06
9.81073e-06
9.89843e-06
9.98483e-06
1.00699e-05
1.01537e-05
1.0236e-05
1.0317e-05
1.03965e-05
1.04745e-05
1.0551e-05
1.06258e-05
1.06989e-05
1.07703e-05
1.08398e-05
1.09072e-05
1.09725e-05
1.10355e-05
1.1096e-05
1.11538e-05
1.12085e-05
1.126e-05
1.13078e-05
1.13516e-05
1.13909e-05
1.1425e-05
1.14533e-05
1.14749e-05
1.1489e-05
1.14945e-05
1.14901e-05
1.14748e-05
1.1447e-05
1.14054e-05
1.13484e-05
1.12747e-05
1.11831e-05
1.10728e-05
1.09436e-05
1.07957e-05
1.06304e-05
1.04494e-05
1.02551e-05
1.00508e-05
9.83951e-06
9.62461e-06
9.40914e-06
9.19572e-06
8.98652e-06
8.78331e-06
8.58743e-06
8.40004e-06
8.22192e-06
8.05391e-06
7.89664e-06
7.75066e-06
7.61642e-06
7.49418e-06
7.38399e-06
7.28593e-06
7.19984e-06
7.1255e-06
7.06229e-06
7.0101e-06
6.96906e-06
6.93863e-06
6.92006e-06
6.91248e-06
6.91859e-06
6.94287e-06
7.37222e-06
7.40861e-06
7.46113e-06
7.52431e-06
7.59684e-06
7.67671e-06
7.76022e-06
7.8474e-06
7.93698e-06
8.02824e-06
8.12087e-06
8.2146e-06
8.30912e-06
8.4042e-06
8.49971e-06
8.59535e-06
8.69107e-06
8.78657e-06
8.88179e-06
8.9766e-06
9.07095e-06
9.16473e-06
9.25786e-06
9.35023e-06
9.44177e-06
9.53241e-06
9.62206e-06
9.71067e-06
9.79817e-06
9.88451e-06
9.96964e-06
1.00535e-05
1.01361e-05
1.02173e-05
1.02971e-05
1.03754e-05
1.04522e-05
1.05274e-05
1.0601e-05
1.06728e-05
1.07428e-05
1.08108e-05
1.08768e-05
1.09406e-05
1.10021e-05
1.10611e-05
1.11173e-05
1.11706e-05
1.12207e-05
1.12674e-05
1.13102e-05
1.13488e-05
1.13827e-05
1.14115e-05
1.14344e-05
1.14508e-05
1.14598e-05
1.14606e-05
1.14521e-05
1.14334e-05
1.14033e-05
1.13606e-05
1.13041e-05
1.12328e-05
1.11459e-05
1.10428e-05
1.09234e-05
1.07882e-05
1.06383e-05
1.04752e-05
1.03012e-05
1.0119e-05
9.9313e-06
9.74104e-06
9.55079e-06
9.36279e-06
9.17888e-06
9.0005e-06
8.82876e-06
8.66449e-06
8.50835e-06
8.36086e-06
8.22246e-06
8.09354e-06
7.97441e-06
7.86531e-06
7.76636e-06
7.67753e-06
7.5988e-06
7.52999e-06
7.47086e-06
7.42095e-06
7.38007e-06
7.34825e-06
7.32512e-06
7.31146e-06
7.30691e-06
7.31349e-06
7.33364e-06
7.60205e-06
7.63722e-06
7.68578e-06
7.7439e-06
7.80995e-06
7.88262e-06
7.95897e-06
8.03887e-06
8.12128e-06
8.20555e-06
8.2914e-06
8.37856e-06
8.46674e-06
8.55574e-06
8.64538e-06
8.73541e-06
8.82569e-06
8.91598e-06
9.00617e-06
9.09612e-06
9.18575e-06
9.27495e-06
9.3636e-06
9.45158e-06
9.53881e-06
9.62518e-06
9.7106e-06
9.79498e-06
9.87823e-06
9.96029e-06
1.00411e-05
1.01205e-05
1.01985e-05
1.02751e-05
1.03501e-05
1.04234e-05
1.0495e-05
1.05648e-05
1.06327e-05
1.06985e-05
1.07622e-05
1.08237e-05
1.08827e-05
1.09392e-05
1.09928e-05
1.10436e-05
1.10911e-05
1.11352e-05
1.11755e-05
1.12117e-05
1.12435e-05
1.12703e-05
1.12918e-05
1.13073e-05
1.13162e-05
1.13179e-05
1.13114e-05
1.12961e-05
1.12709e-05
1.1235e-05
1.11875e-05
1.11276e-05
1.10544e-05
1.09673e-05
1.08661e-05
1.07507e-05
1.06219e-05
1.04807e-05
1.03288e-05
1.01681e-05
1.00012e-05
9.83039e-06
9.65838e-06
9.48742e-06
9.31951e-06
9.15622e-06
8.99877e-06
8.84805e-06
8.70468e-06
8.56912e-06
8.44166e-06
8.32255e-06
8.21193e-06
8.10997e-06
8.0167e-06
7.93219e-06
7.85637e-06
7.78912e-06
7.73031e-06
7.67968e-06
7.63696e-06
7.60177e-06
7.57388e-06
7.55325e-06
7.53961e-06
7.53349e-06
7.53477e-06
7.54496e-06
7.56601e-06
7.75012e-06
7.78615e-06
7.83342e-06
7.88918e-06
7.9517e-06
8.02006e-06
8.09187e-06
8.16692e-06
8.24435e-06
8.32357e-06
8.40432e-06
8.48638e-06
8.56948e-06
8.65344e-06
8.73807e-06
8.82315e-06
8.90852e-06
8.99396e-06
9.07934e-06
9.16453e-06
9.24942e-06
9.3339e-06
9.41784e-06
9.50112e-06
9.58363e-06
9.66524e-06
9.74585e-06
9.82535e-06
9.90365e-06
9.98064e-06
1.00562e-05
1.01303e-05
1.02029e-05
1.02737e-05
1.03428e-05
1.041e-05
1.04752e-05
1.05383e-05
1.05992e-05
1.06577e-05
1.07138e-05
1.07672e-05
1.08177e-05
1.08652e-05
1.09095e-05
1.09503e-05
1.09874e-05
1.10204e-05
1.10491e-05
1.10731e-05
1.10919e-05
1.11052e-05
1.11123e-05
1.11129e-05
1.11061e-05
1.10914e-05
1.10681e-05
1.10354e-05
1.09927e-05
1.09392e-05
1.08743e-05
1.07976e-05
1.07088e-05
1.06079e-05
1.04949e-05
1.03707e-05
1.02363e-05
1.00934e-05
9.94396e-06
9.79008e-06
9.63409e-06
9.47824e-06
9.32458e-06
9.17485e-06
9.03042e-06
8.89227e-06
8.76111e-06
8.63737e-06
8.52131e-06
8.41305e-06
8.31262e-06
8.22002e-06
8.13517e-06
8.05801e-06
7.98842e-06
7.92629e-06
7.87146e-06
7.82372e-06
7.78284e-06
7.74859e-06
7.72067e-06
7.69876e-06
7.68264e-06
7.67229e-06
7.66753e-06
7.66879e-06
7.67608e-06
7.69062e-06
7.71423e-06
7.8584e-06
7.89551e-06
7.94233e-06
7.99668e-06
8.05682e-06
8.12204e-06
8.19035e-06
8.26149e-06
8.33474e-06
8.40957e-06
8.48577e-06
8.56314e-06
8.64145e-06
8.72055e-06
8.80026e-06
8.88036e-06
8.96072e-06
9.04112e-06
9.12143e-06
9.20152e-06
9.28127e-06
9.36057e-06
9.43928e-06
9.51727e-06
9.59441e-06
9.67059e-06
9.74566e-06
9.81952e-06
9.89205e-06
9.96312e-06
1.00326e-05
1.01005e-05
1.01665e-05
1.02307e-05
1.02928e-05
1.03528e-05
1.04106e-05
1.04659e-05
1.05186e-05
1.05687e-05
1.06159e-05
1.066e-05
1.07008e-05
1.07382e-05
1.07719e-05
1.08016e-05
1.0827e-05
1.08478e-05
1.08638e-05
1.08744e-05
1.08794e-05
1.08782e-05
1.08704e-05
1.08554e-05
1.08327e-05
1.08018e-05
1.07621e-05
1.07131e-05
1.06543e-05
1.05853e-05
1.05059e-05
1.04161e-05
1.03161e-05
1.02063e-05
1.00876e-05
9.96097e-06
9.82791e-06
9.69029e-06
9.55007e-06
9.40927e-06
9.26983e-06
9.13352e-06
9.0018e-06
8.87581e-06
8.75635e-06
8.64393e-06
8.5388e-06
8.44108e-06
8.35073e-06
8.26764e-06
8.19163e-06
8.12255e-06
8.06016e-06
8.00429e-06
7.95472e-06
7.91126e-06
7.87371e-06
7.84181e-06
7.81536e-06
7.79411e-06
7.77784e-06
7.76627e-06
7.75926e-06
7.75683e-06
7.75888e-06
7.76587e-06
7.77787e-06
7.79602e-06
7.82199e-06
7.94908e-06
7.98661e-06
8.03278e-06
8.08568e-06
8.14356e-06
8.20584e-06
8.2708e-06
8.33817e-06
8.40732e-06
8.47778e-06
8.54939e-06
8.62197e-06
8.69536e-06
8.76938e-06
8.84392e-06
8.91875e-06
8.99375e-06
9.06872e-06
9.14353e-06
9.21805e-06
9.29216e-06
9.36573e-06
9.43864e-06
9.51074e-06
9.5819e-06
9.65198e-06
9.72084e-06
9.78835e-06
9.85437e-06
9.91878e-06
9.98145e-06
1.00422e-05
1.0101e-05
1.01577e-05
1.02121e-05
1.02641e-05
1.03135e-05
1.03602e-05
1.04041e-05
1.04448e-05
1.04824e-05
1.05165e-05
1.05469e-05
1.05735e-05
1.05959e-05
1.0614e-05
1.06273e-05
1.06357e-05
1.06387e-05
1.06361e-05
1.06274e-05
1.06122e-05
1.05902e-05
1.0561e-05
1.0524e-05
1.0479e-05
1.04256e-05
1.03635e-05
1.02926e-05
1.02128e-05
1.01244e-05
1.00276e-05
9.92317e-06
9.81194e-06
9.69508e-06
9.574e-06
9.45003e-06
9.32499e-06
9.20059e-06
9.07844e-06
8.95997e-06
8.84636e-06
8.73851e-06
8.63702e-06
8.54225e-06
8.45433e-06
8.37324e-06
8.29886e-06
8.23098e-06
8.16937e-06
8.11377e-06
8.0639e-06
8.01952e-06
7.98038e-06
7.94627e-06
7.91697e-06
7.89229e-06
7.87201e-06
7.85594e-06
7.84389e-06
7.8357e-06
7.83117e-06
7.83022e-06
7.83296e-06
7.83937e-06
7.84995e-06
7.86486e-06
7.88519e-06
7.91253e-06
8.03315e-06
8.07014e-06
8.11505e-06
8.16602e-06
8.22131e-06
8.2804e-06
8.34176e-06
8.40514e-06
8.46996e-06
8.53582e-06
8.60258e-06
8.6701e-06
8.73825e-06
8.8069e-06
8.87591e-06
8.94512e-06
9.01438e-06
9.08352e-06
9.15241e-06
9.22093e-06
9.28895e-06
9.35634e-06
9.42296e-06
9.48868e-06
9.55335e-06
9.61683e-06
9.67895e-06
9.73958e-06
9.79857e-06
9.85578e-06
9.91108e-06
9.96431e-06
1.00153e-05
1.0064e-05
1.01102e-05
1.01537e-05
1.01944e-05
1.02321e-05
1.02667e-05
1.02979e-05
1.03256e-05
1.03496e-05
1.03696e-05
1.03855e-05
1.03969e-05
1.04037e-05
1.04055e-05
1.04021e-05
1.03933e-05
1.03786e-05
1.03579e-05
1.03308e-05
1.0297e-05
1.02562e-05
1.02084e-05
1.01532e-05
1.00906e-05
1.00206e-05
9.94343e-06
9.85931e-06
9.76874e-06
9.67242e-06
9.57123e-06
9.46623e-06
9.35868e-06
9.24995e-06
9.14131e-06
9.03409e-06
8.92957e-06
8.82886e-06
8.73285e-06
8.64222e-06
8.55739e-06
8.47861e-06
8.40591e-06
8.33924e-06
8.27841e-06
8.22321e-06
8.17336e-06
8.1286e-06
8.08864e-06
8.05321e-06
8.02207e-06
7.99501e-06
7.97181e-06
7.95231e-06
7.93634e-06
7.92372e-06
7.91433e-06
7.90802e-06
7.90469e-06
7.90421e-06
7.9066e-06
7.91201e-06
7.92052e-06
7.93267e-06
7.94871e-06
7.96972e-06
7.99725e-06
8.1158e-06
8.15132e-06
8.19426e-06
8.24271e-06
8.29494e-06
8.35045e-06
8.40788e-06
8.46694e-06
8.52712e-06
8.58808e-06
8.6497e-06
8.71188e-06
8.7745e-06
8.83747e-06
8.90068e-06
8.96395e-06
9.02718e-06
9.09018e-06
9.15285e-06
9.21506e-06
9.27667e-06
9.33757e-06
9.39761e-06
9.45665e-06
9.51453e-06
9.5711e-06
9.6262e-06
9.67968e-06
9.73139e-06
9.78118e-06
9.82889e-06
9.87438e-06
9.9175e-06
9.95809e-06
9.99599e-06
1.00311e-05
1.00631e-05
1.0092e-05
1.01175e-05
1.01396e-05
1.01579e-05
1.01723e-05
1.01826e-05
1.01887e-05
1.01902e-05
1.0187e-05
1.01789e-05
1.01656e-05
1.0147e-05
1.01228e-05
1.00929e-05
1.00571e-05
1.00152e-05
9.9672e-06
9.91306e-06
9.85284e-06
9.78669e-06
9.71487e-06
9.63777e-06
9.5559e-06
9.46996e-06
9.38073e-06
9.28917e-06
9.19629e-06
9.1032e-06
9.011e-06
8.92075e-06
8.83327e-06
8.74935e-06
8.66965e-06
8.59464e-06
8.52463e-06
8.45975e-06
8.40003e-06
8.34537e-06
8.2956e-06
8.25053e-06
8.20989e-06
8.17345e-06
8.14094e-06
8.11213e-06
8.08676e-06
8.06464e-06
8.04559e-06
8.02946e-06
8.01611e-06
8.00541e-06
7.99725e-06
7.99153e-06
7.98818e-06
7.98715e-06
7.98836e-06
7.99189e-06
7.99797e-06
8.00673e-06
8.01878e-06
8.03442e-06
8.05477e-06
8.08133e-06
8.19951e-06
8.23277e-06
8.27307e-06
8.31846e-06
8.36718e-06
8.41875e-06
8.4719e-06
8.52635e-06
8.58164e-06
8.63744e-06
8.69369e-06
8.75031e-06
8.8072e-06
8.8643e-06
8.92151e-06
8.97868e-06
9.0357e-06
9.09242e-06
9.14872e-06
9.20448e-06
9.25957e-06
9.31387e-06
9.36723e-06
9.41951e-06
9.47056e-06
9.5202e-06
9.56828e-06
9.61465e-06
9.65915e-06
9.70162e-06
9.74191e-06
9.77987e-06
9.81535e-06
9.84819e-06
9.87824e-06
9.90535e-06
9.92936e-06
9.95012e-06
9.96748e-06
9.98126e-06
9.99132e-06
9.99748e-06
9.99959e-06
9.99748e-06
9.99101e-06
9.98002e-06
9.96436e-06
9.94391e-06
9.91855e-06
9.88818e-06
9.85275e-06
9.81224e-06
9.76666e-06
9.71609e-06
9.6607e-06
9.6007e-06
9.53641e-06
9.46825e-06
9.39672e-06
9.32243e-06
9.24607e-06
9.16842e-06
9.09028e-06
9.01252e-06
8.93594e-06
8.86135e-06
8.78945e-06
8.72068e-06
8.65547e-06
8.59413e-06
8.53687e-06
8.48377e-06
8.43483e-06
8.38996e-06
8.34904e-06
8.31189e-06
8.27831e-06
8.24809e-06
8.22102e-06
8.19688e-06
8.17549e-06
8.15663e-06
8.14018e-06
8.12598e-06
8.11393e-06
8.10393e-06
8.09591e-06
8.08977e-06
8.08549e-06
8.08301e-06
8.08234e-06
8.08345e-06
8.08647e-06
8.09168e-06
8.09928e-06
8.10993e-06
8.12398e-06
8.14258e-06
8.16719e-06
8.28557e-06
8.3159e-06
8.35302e-06
8.3949e-06
8.43976e-06
8.4871e-06
8.53572e-06
8.58536e-06
8.63557e-06
8.68607e-06
8.73683e-06
8.78777e-06
8.83886e-06
8.89002e-06
8.94118e-06
8.99223e-06
9.04304e-06
9.09349e-06
9.14347e-06
9.19285e-06
9.24152e-06
9.28934e-06
9.33618e-06
9.38189e-06
9.42631e-06
9.46929e-06
9.51066e-06
9.55026e-06
9.58795e-06
9.62357e-06
9.65696e-06
9.68799e-06
9.71651e-06
9.74237e-06
9.76544e-06
9.78557e-06
9.80264e-06
9.81649e-06
9.82701e-06
9.83407e-06
9.83754e-06
9.83729e-06
9.83322e-06
9.82523e-06
9.81321e-06
9.7971e-06
9.77682e-06
9.75232e-06
9.72361e-06
9.69067e-06
9.65358e-06
9.61241e-06
9.56731e-06
9.51847e-06
9.46616e-06
9.4107e-06
9.35247e-06
9.29193e-06
9.2296e-06
9.16603e-06
9.10183e-06
9.03763e-06
8.97405e-06
8.9117e-06
8.85114e-06
8.79287e-06
8.73729e-06
8.68459e-06
8.63494e-06
8.58847e-06
8.54522e-06
8.50518e-06
8.46828e-06
8.43442e-06
8.40347e-06
8.37528e-06
8.3497e-06
8.32655e-06
8.30567e-06
8.28689e-06
8.27009e-06
8.25508e-06
8.24178e-06
8.23009e-06
8.21993e-06
8.21124e-06
8.20399e-06
8.19811e-06
8.19361e-06
8.19049e-06
8.18876e-06
8.18846e-06
8.18974e-06
8.19294e-06
8.19831e-06
8.20656e-06
8.2181e-06
8.23408e-06
8.256e-06
8.37474e-06
8.40163e-06
8.43517e-06
8.47322e-06
8.51396e-06
8.55689e-06
8.60084e-06
8.64556e-06
8.69063e-06
8.7358e-06
8.78106e-06
8.82637e-06
8.87169e-06
8.91701e-06
8.96224e-06
9.0073e-06
9.05208e-06
9.09647e-06
9.14036e-06
9.18364e-06
9.22619e-06
9.26788e-06
9.30858e-06
9.34815e-06
9.38644e-06
9.42328e-06
9.45852e-06
9.49201e-06
9.5236e-06
9.55315e-06
9.58051e-06
9.60555e-06
9.62814e-06
9.64816e-06
9.66547e-06
9.67997e-06
9.69155e-06
9.70009e-06
9.70551e-06
9.7077e-06
9.70659e-06
9.70211e-06
9.69419e-06
9.68278e-06
9.66787e-06
9.64942e-06
9.62746e-06
9.60201e-06
9.57313e-06
9.54092e-06
9.5055e-06
9.46704e-06
9.42574e-06
9.38186e-06
9.33569e-06
9.28758e-06
9.23789e-06
9.18706e-06
9.13551e-06
9.08372e-06
9.03213e-06
8.98122e-06
8.93141e-06
8.88309e-06
8.8366e-06
8.79222e-06
8.75016e-06
8.71041e-06
8.67303e-06
8.63804e-06
8.6054e-06
8.57506e-06
8.54695e-06
8.52095e-06
8.49698e-06
8.47491e-06
8.45464e-06
8.43603e-06
8.41898e-06
8.40334e-06
8.38904e-06
8.37593e-06
8.36397e-06
8.35307e-06
8.34322e-06
8.33437e-06
8.3265e-06
8.31961e-06
8.31371e-06
8.30882e-06
8.30501e-06
8.30233e-06
8.30097e-06
8.30131e-06
8.30366e-06
8.30875e-06
8.31706e-06
8.32978e-06
8.34841e-06
8.46763e-06
8.49069e-06
8.52037e-06
8.55438e-06
8.59088e-06
8.62931e-06
8.66857e-06
8.70839e-06
8.74837e-06
8.7883e-06
8.82819e-06
8.86802e-06
8.90779e-06
8.94748e-06
8.98706e-06
9.02643e-06
9.06553e-06
9.10424e-06
9.14246e-06
9.18009e-06
9.21703e-06
9.25314e-06
9.28831e-06
9.32239e-06
9.35524e-06
9.38671e-06
9.41664e-06
9.44491e-06
9.47136e-06
9.49586e-06
9.5183e-06
9.53854e-06
9.55648e-06
9.57202e-06
9.58504e-06
9.59547e-06
9.60322e-06
9.60821e-06
9.61039e-06
9.60971e-06
9.60611e-06
9.59957e-06
9.59009e-06
9.57765e-06
9.56229e-06
9.54404e-06
9.52296e-06
9.49914e-06
9.47267e-06
9.44371e-06
9.41242e-06
9.37898e-06
9.34363e-06
9.30662e-06
9.26822e-06
9.22875e-06
9.18853e-06
9.14789e-06
9.10718e-06
9.06673e-06
9.02687e-06
8.98791e-06
8.95011e-06
8.91371e-06
8.87889e-06
8.84578e-06
8.81443e-06
8.78476e-06
8.75675e-06
8.73037e-06
8.70556e-06
8.68226e-06
8.66038e-06
8.63985e-06
8.62059e-06
8.60253e-06
8.58559e-06
8.56967e-06
8.5547e-06
8.54059e-06
8.52728e-06
8.51466e-06
8.50272e-06
8.4914e-06
8.4807e-06
8.47061e-06
8.46114e-06
8.45229e-06
8.44412e-06
8.43667e-06
8.43002e-06
8.42424e-06
8.41957e-06
8.41642e-06
8.41514e-06
8.41651e-06
8.42106e-06
8.43e-06
8.4449e-06
8.56478e-06
8.58374e-06
8.60938e-06
8.63927e-06
8.6715e-06
8.70548e-06
8.74013e-06
8.77517e-06
8.81023e-06
8.84513e-06
8.8799e-06
8.91454e-06
8.94908e-06
8.98352e-06
9.01784e-06
9.05198e-06
9.08588e-06
9.11943e-06
9.15256e-06
9.18517e-06
9.21716e-06
9.24841e-06
9.27881e-06
9.30822e-06
9.33651e-06
9.36353e-06
9.38914e-06
9.41322e-06
9.43564e-06
9.45628e-06
9.47504e-06
9.4918e-06
9.50647e-06
9.51898e-06
9.52924e-06
9.5372e-06
9.54279e-06
9.54598e-06
9.54673e-06
9.54502e-06
9.54085e-06
9.53422e-06
9.52515e-06
9.51369e-06
9.49988e-06
9.4838e-06
9.46553e-06
9.44519e-06
9.42291e-06
9.39883e-06
9.37312e-06
9.34598e-06
9.3176e-06
9.28822e-06
9.25807e-06
9.22739e-06
9.19644e-06
9.16547e-06
9.13473e-06
9.10443e-06
9.0748e-06
9.04602e-06
9.01823e-06
8.99157e-06
8.96611e-06
8.94189e-06
8.91883e-06
8.89684e-06
8.87587e-06
8.85586e-06
8.83674e-06
8.81843e-06
8.80088e-06
8.78403e-06
8.76782e-06
8.75221e-06
8.73715e-06
8.72257e-06
8.70843e-06
8.69466e-06
8.68125e-06
8.6681e-06
8.65522e-06
8.64259e-06
8.63021e-06
8.61811e-06
8.6063e-06
8.59482e-06
8.58374e-06
8.57311e-06
8.56306e-06
8.55366e-06
8.54518e-06
8.53805e-06
8.53269e-06
8.5299e-06
8.53027e-06
8.53508e-06
8.54592e-06
8.66674e-06
8.68144e-06
8.70297e-06
8.72874e-06
8.75679e-06
8.78644e-06
8.81666e-06
8.84716e-06
8.87757e-06
8.90776e-06
8.93775e-06
8.9676e-06
8.99734e-06
9.02701e-06
9.0566e-06
9.08607e-06
9.11537e-06
9.14442e-06
9.17314e-06
9.20146e-06
9.22928e-06
9.2565e-06
9.28299e-06
9.30865e-06
9.33333e-06
9.35692e-06
9.37928e-06
9.40029e-06
9.41984e-06
9.43783e-06
9.45416e-06
9.46875e-06
9.48152e-06
9.49241e-06
9.50135e-06
9.50832e-06
9.51328e-06
9.5162e-06
9.51708e-06
9.51593e-06
9.51275e-06
9.50758e-06
9.50047e-06
9.49146e-06
9.48064e-06
9.46807e-06
9.45387e-06
9.43815e-06
9.42102e-06
9.40264e-06
9.38315e-06
9.36272e-06
9.34152e-06
9.31973e-06
9.29753e-06
9.27511e-06
9.25265e-06
9.23033e-06
9.2083e-06
9.18671e-06
9.16568e-06
9.14531e-06
9.12567e-06
9.10681e-06
9.08873e-06
9.07144e-06
9.05473e-06
9.03855e-06
9.02282e-06
9.00747e-06
8.99241e-06
8.97759e-06
8.96296e-06
8.94847e-06
8.93409e-06
8.91979e-06
8.90555e-06
8.89132e-06
8.8771e-06
8.86282e-06
8.84851e-06
8.83408e-06
8.81957e-06
8.80497e-06
8.79029e-06
8.77559e-06
8.76091e-06
8.74628e-06
8.73181e-06
8.71758e-06
8.70369e-06
8.69027e-06
8.6776e-06
8.66614e-06
8.65634e-06
8.64907e-06
8.64498e-06
8.64537e-06
8.65192e-06
8.77408e-06
8.78443e-06
8.80187e-06
8.82363e-06
8.84765e-06
8.8732e-06
8.89926e-06
8.92552e-06
8.95165e-06
8.97751e-06
9.00318e-06
9.02872e-06
9.05419e-06
9.07964e-06
9.10509e-06
9.13053e-06
9.15591e-06
9.18117e-06
9.20625e-06
9.23107e-06
9.25555e-06
9.2796e-06
9.3031e-06
9.32595e-06
9.34802e-06
9.36919e-06
9.38935e-06
9.40838e-06
9.42619e-06
9.44268e-06
9.45777e-06
9.47139e-06
9.48348e-06
9.49399e-06
9.50288e-06
9.51012e-06
9.5157e-06
9.5196e-06
9.52185e-06
9.52245e-06
9.52144e-06
9.51885e-06
9.51474e-06
9.50916e-06
9.5022e-06
9.49393e-06
9.48444e-06
9.47385e-06
9.46226e-06
9.44979e-06
9.43656e-06
9.42271e-06
9.40836e-06
9.39367e-06
9.37874e-06
9.36373e-06
9.34875e-06
9.3339e-06
9.31929e-06
9.305e-06
9.29108e-06
9.27758e-06
9.2645e-06
9.25184e-06
9.23957e-06
9.22764e-06
9.21579e-06
9.20399e-06
9.19214e-06
9.18016e-06
9.16797e-06
9.15552e-06
9.14277e-06
9.12967e-06
9.11622e-06
9.1024e-06
9.0882e-06
9.07361e-06
9.05862e-06
9.04321e-06
9.0274e-06
9.01115e-06
8.99449e-06
8.97742e-06
8.96e-06
8.94227e-06
8.92429e-06
8.90614e-06
8.88792e-06
8.86973e-06
8.85169e-06
8.83395e-06
8.81679e-06
8.80073e-06
8.78625e-06
8.77425e-06
8.76547e-06
8.76125e-06
8.76338e-06
8.88735e-06
8.89334e-06
8.9068e-06
8.92471e-06
8.94494e-06
8.96668e-06
8.98891e-06
9.01131e-06
9.03358e-06
9.05559e-06
9.07744e-06
9.0992e-06
9.12097e-06
9.14282e-06
9.16478e-06
9.18686e-06
9.20904e-06
9.23126e-06
9.25347e-06
9.2756e-06
9.29758e-06
9.31932e-06
9.34072e-06
9.36167e-06
9.38207e-06
9.40178e-06
9.42071e-06
9.43876e-06
9.45583e-06
9.47185e-06
9.48673e-06
9.50041e-06
9.51285e-06
9.524e-06
9.53384e-06
9.54234e-06
9.5495e-06
9.55532e-06
9.55982e-06
9.56301e-06
9.56493e-06
9.56562e-06
9.56513e-06
9.56352e-06
9.56085e-06
9.5572e-06
9.55265e-06
9.54728e-06
9.54119e-06
9.53446e-06
9.52719e-06
9.51948e-06
9.51143e-06
9.50314e-06
9.49468e-06
9.48614e-06
9.47761e-06
9.46913e-06
9.46077e-06
9.45255e-06
9.44448e-06
9.43656e-06
9.42876e-06
9.42104e-06
9.41334e-06
9.40557e-06
9.39745e-06
9.38894e-06
9.37995e-06
9.37039e-06
9.36019e-06
9.34928e-06
9.33764e-06
9.32522e-06
9.31204e-06
9.29808e-06
9.28335e-06
9.26786e-06
9.25161e-06
9.2346e-06
9.21686e-06
9.19837e-06
9.17916e-06
9.15927e-06
9.13874e-06
9.11765e-06
9.09607e-06
9.07409e-06
9.05185e-06
9.02944e-06
9.00701e-06
8.98471e-06
8.96285e-06
8.94197e-06
8.92262e-06
8.90573e-06
8.89211e-06
8.88316e-06
8.88078e-06
9.0071e-06
9.0088e-06
9.01842e-06
9.03271e-06
9.04944e-06
9.06772e-06
9.0865e-06
9.10549e-06
9.12436e-06
9.14302e-06
9.16158e-06
9.18014e-06
9.19881e-06
9.21769e-06
9.23682e-06
9.25623e-06
9.27592e-06
9.29583e-06
9.31592e-06
9.33614e-06
9.35641e-06
9.37665e-06
9.39677e-06
9.41666e-06
9.43622e-06
9.45533e-06
9.4739e-06
9.49182e-06
9.50901e-06
9.52539e-06
9.5409e-06
9.55547e-06
9.56907e-06
9.58164e-06
9.59318e-06
9.60365e-06
9.61307e-06
9.62143e-06
9.62874e-06
9.63503e-06
9.64033e-06
9.64467e-06
9.6481e-06
9.65066e-06
9.65241e-06
9.65341e-06
9.65372e-06
9.65341e-06
9.65255e-06
9.65119e-06
9.64943e-06
9.64731e-06
9.6449e-06
9.64228e-06
9.63948e-06
9.63656e-06
9.63355e-06
9.63048e-06
9.62737e-06
9.62419e-06
9.62095e-06
9.6176e-06
9.61408e-06
9.61032e-06
9.60625e-06
9.60171e-06
9.59646e-06
9.59044e-06
9.58356e-06
9.57571e-06
9.56683e-06
9.55685e-06
9.54575e-06
9.53349e-06
9.52008e-06
9.50553e-06
9.48985e-06
9.47306e-06
9.45517e-06
9.43621e-06
9.41621e-06
9.39517e-06
9.37312e-06
9.35011e-06
9.32621e-06
9.30149e-06