/*--------------------------------*- C++ -*----------------------------------*\
  =========                 |
  \\      /  F ield         | OpenFOAM: The Open Source CFD Toolbox
   \\    /   O peration     | Website:  https://openfoam.org
    \\  /    A nd           | Version:  8
     \\/     M anipulation  |
\*---------------------------------------------------------------------------*/
FoamFile
{
    version     2.0;
    format      ascii;
    class       volScalarField;
    location    "10000";
    object      nut;
}
// * * * * * * * * * * * * * * * * * * * * * * * * * * * * * * * * * * * * * //

dimensions      [0 2 -1 0 0 0 0];

internalField   nonuniform List<scalar> 
14751
(
3.42155e-11
3.58549e-11
3.77436e-11
3.97236e-11
4.18541e-11
4.4104e-11
4.64403e-11
4.89084e-11
5.14675e-11
5.41658e-11
5.69579e-11
5.98713e-11
6.28777e-11
6.5959e-11
6.91331e-11
7.23751e-11
7.57001e-11
7.90683e-11
8.25069e-11
8.59922e-11
8.95494e-11
9.31621e-11
9.68276e-11
1.00535e-10
1.04307e-10
1.08127e-10
1.11982e-10
1.15875e-10
1.19782e-10
1.23712e-10
1.27663e-10
1.31629e-10
1.35607e-10
1.39586e-10
1.43561e-10
1.47528e-10
1.51457e-10
1.55356e-10
1.59205e-10
1.63003e-10
1.66707e-10
1.7033e-10
1.73882e-10
1.77317e-10
1.80645e-10
1.83833e-10
1.86865e-10
1.89731e-10
1.92397e-10
1.94844e-10
1.9705e-10
1.98996e-10
2.0066e-10
2.02008e-10
2.03015e-10
2.03661e-10
2.03939e-10
2.03838e-10
2.03195e-10
2.01896e-10
1.99875e-10
1.96965e-10
1.93027e-10
1.87909e-10
1.81434e-10
1.73547e-10
1.64243e-10
1.53623e-10
1.41885e-10
1.29389e-10
1.16575e-10
1.03904e-10
9.18096e-11
8.06231e-11
7.05518e-11
6.16819e-11
5.40129e-11
4.75071e-11
4.21102e-11
3.77582e-11
3.43193e-11
3.16397e-11
2.95914e-11
2.80289e-11
2.68646e-11
2.60213e-11
2.54483e-11
2.51072e-11
2.49702e-11
2.50156e-11
2.52315e-11
2.56066e-11
2.61387e-11
2.68265e-11
2.76633e-11
2.86632e-11
2.9805e-11
3.10933e-11
3.25336e-11
2.3735e-09
2.48892e-09
2.62082e-09
2.75801e-09
2.90481e-09
3.05956e-09
3.21995e-09
3.3875e-09
3.56145e-09
3.74523e-09
3.93571e-09
4.13473e-09
4.34075e-09
4.55253e-09
4.77131e-09
4.99567e-09
5.22641e-09
5.46109e-09
5.70148e-09
5.94628e-09
6.19704e-09
6.45276e-09
6.71331e-09
6.97817e-09
7.24881e-09
7.52402e-09
7.80299e-09
8.08576e-09
8.37097e-09
8.65913e-09
8.95018e-09
9.24367e-09
9.53932e-09
9.83647e-09
1.01346e-08
1.04333e-08
1.07305e-08
1.10267e-08
1.13205e-08
1.16112e-08
1.1896e-08
1.21758e-08
1.24514e-08
1.27192e-08
1.29795e-08
1.32298e-08
1.34688e-08
1.36956e-08
1.39073e-08
1.41024e-08
1.42789e-08
1.44351e-08
1.45693e-08
1.46787e-08
1.47612e-08
1.48151e-08
1.484e-08
1.48343e-08
1.4785e-08
1.46836e-08
1.45242e-08
1.42941e-08
1.39826e-08
1.35782e-08
1.3069e-08
1.24525e-08
1.17308e-08
1.09148e-08
1.00228e-08
9.0847e-09
8.13487e-09
7.20768e-09
6.33374e-09
5.53488e-09
4.82331e-09
4.20252e-09
3.67016e-09
3.22105e-09
2.84996e-09
2.55241e-09
2.31854e-09
2.13724e-09
1.99944e-09
1.89504e-09
1.81794e-09
1.76287e-09
1.72634e-09
1.70576e-09
1.69925e-09
1.70535e-09
1.72331e-09
1.75239e-09
1.79248e-09
1.84348e-09
1.90488e-09
1.97764e-09
2.06015e-09
2.15244e-09
2.25455e-09
1.76457e-08
1.85692e-08
1.96746e-08
2.0871e-08
2.21974e-08
2.36326e-08
2.51543e-08
2.67797e-08
2.84991e-08
3.03165e-08
3.22362e-08
3.4278e-08
3.6438e-08
3.87033e-08
4.10865e-08
4.3581e-08
4.61897e-08
4.88944e-08
5.17113e-08
5.46312e-08
5.76657e-08
6.08074e-08
6.40541e-08
6.7401e-08
7.08593e-08
7.44176e-08
7.80685e-08
8.18091e-08
8.56254e-08
8.9519e-08
9.3487e-08
9.75222e-08
1.01619e-07
1.05768e-07
1.09959e-07
1.14184e-07
1.18418e-07
1.22665e-07
1.26899e-07
1.3111e-07
1.35264e-07
1.39367e-07
1.43418e-07
1.47374e-07
1.51222e-07
1.54931e-07
1.58476e-07
1.61833e-07
1.64974e-07
1.67871e-07
1.70494e-07
1.72813e-07
1.74798e-07
1.7641e-07
1.77613e-07
1.78378e-07
1.78689e-07
1.78508e-07
1.77662e-07
1.76031e-07
1.73523e-07
1.69974e-07
1.65243e-07
1.59198e-07
1.5172e-07
1.42817e-07
1.32584e-07
1.21242e-07
1.09126e-07
9.67017e-08
8.44719e-08
7.28996e-08
6.23514e-08
5.30432e-08
4.50451e-08
3.83111e-08
3.27283e-08
2.81618e-08
2.44842e-08
2.15652e-08
1.93051e-08
1.75668e-08
1.6247e-08
1.52394e-08
1.44813e-08
1.39194e-08
1.35191e-08
1.32549e-08
1.31081e-08
1.30647e-08
1.31165e-08
1.32559e-08
1.34819e-08
1.37944e-08
1.41907e-08
1.46817e-08
1.5259e-08
1.5932e-08
1.67099e-08
8.16698e-08
8.62384e-08
9.20084e-08
9.85275e-08
1.06041e-07
1.14442e-07
1.2361e-07
1.33697e-07
1.44671e-07
1.56583e-07
1.69488e-07
1.83438e-07
1.98445e-07
2.14589e-07
2.3197e-07
2.50624e-07
2.70507e-07
2.91536e-07
3.13792e-07
3.37231e-07
3.61868e-07
3.87639e-07
4.14496e-07
4.42374e-07
4.71274e-07
5.01085e-07
5.31719e-07
5.63086e-07
5.9506e-07
6.27579e-07
6.60565e-07
6.93916e-07
7.27547e-07
7.61345e-07
7.95184e-07
8.28961e-07
8.62522e-07
8.95865e-07
9.28762e-07
9.61094e-07
9.92705e-07
1.02353e-06
1.05344e-06
1.08234e-06
1.11014e-06
1.13668e-06
1.16179e-06
1.18537e-06
1.20724e-06
1.22727e-06
1.24529e-06
1.26114e-06
1.27465e-06
1.2856e-06
1.29379e-06
1.29899e-06
1.30101e-06
1.29958e-06
1.29375e-06
1.28279e-06
1.26596e-06
1.2422e-06
1.21043e-06
1.16955e-06
1.11847e-06
1.05666e-06
9.84081e-07
9.01586e-07
8.11018e-07
7.15493e-07
6.18982e-07
5.25747e-07
4.3969e-07
3.63612e-07
2.98928e-07
2.45714e-07
2.03055e-07
1.6949e-07
1.43444e-07
1.23372e-07
1.0801e-07
9.62349e-08
8.73571e-08
8.05531e-08
7.53613e-08
7.13975e-08
6.84148e-08
6.62366e-08
6.47342e-08
6.38082e-08
6.3398e-08
6.34485e-08
6.39483e-08
6.48956e-08
6.62784e-08
6.81694e-08
7.05415e-08
7.34917e-08
7.71086e-08
3.13267e-07
3.311e-07
3.54678e-07
3.82071e-07
4.14345e-07
4.50927e-07
4.91138e-07
5.35611e-07
5.84083e-07
6.36635e-07
6.93356e-07
7.54304e-07
8.19346e-07
8.88505e-07
9.61671e-07
1.03853e-06
1.11908e-06
1.20297e-06
1.29009e-06
1.38019e-06
1.47284e-06
1.56761e-06
1.66412e-06
1.76197e-06
1.86092e-06
1.96052e-06
2.06041e-06
2.16025e-06
2.25966e-06
2.35842e-06
2.45628e-06
2.55298e-06
2.64836e-06
2.74222e-06
2.83421e-06
2.92414e-06
3.01171e-06
3.09676e-06
3.17918e-06
3.25884e-06
3.33548e-06
3.40901e-06
3.4793e-06
3.54619e-06
3.60963e-06
3.66935e-06
3.72514e-06
3.77682e-06
3.82416e-06
3.86695e-06
3.90492e-06
3.9378e-06
3.96535e-06
3.98717e-06
4.00286e-06
4.01196e-06
4.01385e-06
4.00793e-06
3.99286e-06
3.96713e-06
3.92924e-06
3.87711e-06
3.80847e-06
3.72088e-06
3.61167e-06
3.47867e-06
3.32019e-06
3.13552e-06
2.9253e-06
2.69229e-06
2.44137e-06
2.17949e-06
1.9154e-06
1.65859e-06
1.41819e-06
1.20155e-06
1.0132e-06
8.54497e-07
7.24227e-07
6.19206e-07
5.35772e-07
4.69749e-07
4.17772e-07
3.76974e-07
3.45305e-07
3.20522e-07
3.01182e-07
2.86249e-07
2.74949e-07
2.66654e-07
2.60967e-07
2.57523e-07
2.56205e-07
2.56962e-07
2.59696e-07
2.64763e-07
2.72041e-07
2.82121e-07
2.95469e-07
9.35838e-07
9.79635e-07
1.03968e-06
1.11017e-06
1.19341e-06
1.28716e-06
1.38892e-06
1.49988e-06
1.61885e-06
1.74556e-06
1.8798e-06
2.02135e-06
2.16957e-06
2.32413e-06
2.48459e-06
2.65015e-06
2.82058e-06
2.99483e-06
3.17253e-06
3.35273e-06
3.53518e-06
3.71911e-06
3.90382e-06
4.08864e-06
4.27305e-06
4.45636e-06
4.638e-06
4.81743e-06
4.99414e-06
5.16777e-06
5.33795e-06
5.50431e-06
5.66647e-06
5.82408e-06
5.97698e-06
6.1249e-06
6.26747e-06
6.40458e-06
6.5361e-06
6.66185e-06
6.78151e-06
6.89501e-06
7.00216e-06
7.1028e-06
7.19688e-06
7.28406e-06
7.36407e-06
7.43668e-06
7.50158e-06
7.55851e-06
7.60709e-06
7.64694e-06
7.67774e-06
7.69888e-06
7.70973e-06
7.70955e-06
7.69727e-06
7.67149e-06
7.63129e-06
7.57452e-06
7.49907e-06
7.40226e-06
7.2812e-06
7.13287e-06
6.95413e-06
6.74244e-06
6.49592e-06
6.21386e-06
5.89709e-06
5.54867e-06
5.17382e-06
4.77976e-06
4.37554e-06
3.97113e-06
3.57667e-06
3.20142e-06
2.85285e-06
2.53597e-06
2.25358e-06
2.00591e-06
1.79202e-06
1.6089e-06
1.45388e-06
1.32352e-06
1.21443e-06
1.12399e-06
1.0497e-06
9.89227e-07
9.40599e-07
9.01894e-07
8.7192e-07
8.4941e-07
8.33911e-07
8.2519e-07
8.22722e-07
8.27656e-07
8.39449e-07
8.60317e-07
8.91462e-07
2.03057e-06
2.10473e-06
2.20986e-06
2.33501e-06
2.48357e-06
2.65089e-06
2.83196e-06
3.02838e-06
3.23771e-06
3.4591e-06
3.69191e-06
3.93546e-06
4.18842e-06
4.45e-06
4.71921e-06
4.99458e-06
5.2755e-06
5.56001e-06
5.84747e-06
6.13639e-06
6.42616e-06
6.7155e-06
7.00328e-06
7.28842e-06
7.57011e-06
7.84738e-06
8.11944e-06
8.38553e-06
8.645e-06
8.89735e-06
9.14212e-06
9.37887e-06
9.60721e-06
9.82679e-06
1.00374e-05
1.02388e-05
1.04305e-05
1.06126e-05
1.07848e-05
1.09472e-05
1.10992e-05
1.1241e-05
1.13722e-05
1.14928e-05
1.16028e-05
1.17017e-05
1.17892e-05
1.18652e-05
1.19292e-05
1.19809e-05
1.20199e-05
1.20456e-05
1.20577e-05
1.20553e-05
1.20376e-05
1.20034e-05
1.19513e-05
1.18794e-05
1.17864e-05
1.16706e-05
1.15295e-05
1.136e-05
1.11591e-05
1.09237e-05
1.06511e-05
1.0339e-05
9.9863e-06
9.59319e-06
9.16165e-06
8.69595e-06
8.20254e-06
7.68975e-06
7.16753e-06
6.6464e-06
6.13672e-06
5.64769e-06
5.18652e-06
4.75808e-06
4.3653e-06
4.00886e-06
3.68874e-06
3.40285e-06
3.14975e-06
2.92698e-06
2.73219e-06
2.56327e-06
2.4179e-06
2.29354e-06
2.18844e-06
2.10078e-06
2.02916e-06
1.97138e-06
1.92684e-06
1.89545e-06
1.87573e-06
1.87066e-06
1.87882e-06
1.90646e-06
1.95556e-06
3.53797e-06
3.65317e-06
3.81861e-06
4.01736e-06
4.2538e-06
4.52027e-06
4.80836e-06
5.11982e-06
5.45012e-06
5.79721e-06
6.15945e-06
6.53517e-06
6.9218e-06
7.31762e-06
7.72072e-06
8.12851e-06
8.53984e-06
8.95154e-06
9.36271e-06
9.77121e-06
1.01761e-05
1.05758e-05
1.09687e-05
1.13535e-05
1.17293e-05
1.20949e-05
1.24497e-05
1.27927e-05
1.31233e-05
1.34411e-05
1.37458e-05
1.40369e-05
1.43141e-05
1.45773e-05
1.48263e-05
1.5061e-05
1.5281e-05
1.54864e-05
1.56772e-05
1.58533e-05
1.60145e-05
1.61608e-05
1.62921e-05
1.64082e-05
1.65091e-05
1.65945e-05
1.66641e-05
1.67176e-05
1.67546e-05
1.67747e-05
1.67775e-05
1.67623e-05
1.67285e-05
1.66751e-05
1.6601e-05
1.6505e-05
1.63853e-05
1.624e-05
1.60669e-05
1.58647e-05
1.56315e-05
1.53646e-05
1.5061e-05
1.47183e-05
1.43345e-05
1.39086e-05
1.34405e-05
1.29321e-05
1.23867e-05
1.18101e-05
1.12098e-05
1.05948e-05
9.97521e-06
9.36114e-06
8.76225e-06
8.18679e-06
7.64116e-06
7.12962e-06
6.6549e-06
6.21777e-06
5.81857e-06
5.45568e-06
5.12829e-06
4.83449e-06
4.57261e-06
4.3409e-06
4.13742e-06
3.95997e-06
3.80709e-06
3.67692e-06
3.56807e-06
3.47833e-06
3.40729e-06
3.3551e-06
3.32061e-06
3.30745e-06
3.31399e-06
3.34984e-06
3.42297e-06
5.50591e-06
5.68382e-06
5.93807e-06
6.2426e-06
6.60236e-06
7.00526e-06
7.43754e-06
7.9005e-06
8.38613e-06
8.89025e-06
9.40958e-06
9.94102e-06
1.04804e-05
1.10248e-05
1.15715e-05
1.21167e-05
1.26591e-05
1.31944e-05
1.3722e-05
1.42393e-05
1.47456e-05
1.5239e-05
1.57183e-05
1.61821e-05
1.66296e-05
1.706e-05
1.74726e-05
1.78669e-05
1.82425e-05
1.85991e-05
1.89366e-05
1.92547e-05
1.95535e-05
1.98328e-05
2.00928e-05
2.03334e-05
2.05544e-05
2.07561e-05
2.09385e-05
2.11017e-05
2.12455e-05
2.137e-05
2.14752e-05
2.15608e-05
2.1627e-05
2.16733e-05
2.16996e-05
2.17056e-05
2.16907e-05
2.16546e-05
2.15967e-05
2.15162e-05
2.14125e-05
2.12844e-05
2.11308e-05
2.09502e-05
2.0741e-05
2.05013e-05
2.02291e-05
1.99222e-05
1.95796e-05
1.92002e-05
1.87818e-05
1.83228e-05
1.78223e-05
1.72807e-05
1.66997e-05
1.60824e-05
1.5434e-05
1.47612e-05
1.40722e-05
1.33762e-05
1.26829e-05
1.20014e-05
1.134e-05
1.07056e-05
1.01034e-05
9.53685e-06
9.00809e-06
8.51775e-06
8.06636e-06
7.65256e-06
7.27604e-06
6.93532e-06
6.62922e-06
6.35636e-06
6.11511e-06
5.90358e-06
5.72057e-06
5.56432e-06
5.43356e-06
5.32613e-06
5.24194e-06
5.18177e-06
5.14488e-06
5.13655e-06
5.156e-06
5.21441e-06
5.32805e-06
8.09371e-06
8.35754e-06
8.7324e-06
9.17656e-06
9.69425e-06
1.02668e-05
1.08726e-05
1.15119e-05
1.21718e-05
1.28457e-05
1.35285e-05
1.4216e-05
1.49026e-05
1.5585e-05
1.62599e-05
1.69233e-05
1.75741e-05
1.82076e-05
1.8824e-05
1.94209e-05
1.99981e-05
2.05542e-05
2.10882e-05
2.15991e-05
2.20866e-05
2.25501e-05
2.29894e-05
2.34042e-05
2.37944e-05
2.41601e-05
2.45013e-05
2.4818e-05
2.51105e-05
2.53788e-05
2.56232e-05
2.58437e-05
2.60404e-05
2.62137e-05
2.63635e-05
2.64901e-05
2.65935e-05
2.66736e-05
2.67306e-05
2.67642e-05
2.67745e-05
2.67613e-05
2.67241e-05
2.66629e-05
2.65769e-05
2.64659e-05
2.63292e-05
2.6166e-05
2.59756e-05
2.57568e-05
2.55085e-05
2.52294e-05
2.4918e-05
2.45727e-05
2.41919e-05
2.37741e-05
2.3318e-05
2.28228e-05
2.22897e-05
2.17181e-05
2.11083e-05
2.04623e-05
1.9783e-05
1.90752e-05
1.8345e-05
1.75999e-05
1.68484e-05
1.6099e-05
1.53604e-05
1.46405e-05
1.39458e-05
1.3282e-05
1.26528e-05
1.20608e-05
1.15076e-05
1.09937e-05
1.05196e-05
1.0084e-05
9.6868e-06
9.32685e-06
9.00326e-06
8.71484e-06
8.46021e-06
8.23766e-06
8.04622e-06
7.88418e-06
7.75055e-06
7.64315e-06
7.56248e-06
7.51037e-06
7.48667e-06
7.49941e-06
7.54883e-06
7.65184e-06
7.82368e-06
1.15009e-05
1.18598e-05
1.23744e-05
1.29767e-05
1.36679e-05
1.44209e-05
1.52044e-05
1.60176e-05
1.68427e-05
1.76709e-05
1.84964e-05
1.93143e-05
2.01192e-05
2.09076e-05
2.1677e-05
2.24233e-05
2.31465e-05
2.38423e-05
2.45116e-05
2.51528e-05
2.57662e-05
2.63511e-05
2.69069e-05
2.74332e-05
2.79299e-05
2.83969e-05
2.88343e-05
2.92421e-05
2.96205e-05
2.99697e-05
3.02901e-05
3.05818e-05
3.08451e-05
3.10805e-05
3.12881e-05
3.14681e-05
3.16208e-05
3.17465e-05
3.18454e-05
3.19177e-05
3.19635e-05
3.19828e-05
3.19756e-05
3.1942e-05
3.18818e-05
3.17949e-05
3.1681e-05
3.15399e-05
3.1371e-05
3.11739e-05
3.09481e-05
3.06929e-05
3.04075e-05
3.00911e-05
2.97425e-05
2.9361e-05
2.89452e-05
2.84943e-05
2.80072e-05
2.74833e-05
2.69223e-05
2.63241e-05
2.56894e-05
2.50223e-05
2.43245e-05
2.3599e-05
2.28499e-05
2.20828e-05
2.13045e-05
2.05225e-05
1.97446e-05
1.89784e-05
1.8231e-05
1.75085e-05
1.6816e-05
1.61573e-05
1.55352e-05
1.49514e-05
1.4407e-05
1.3902e-05
1.3437e-05
1.30104e-05
1.26223e-05
1.22715e-05
1.19572e-05
1.16784e-05
1.14338e-05
1.12217e-05
1.10413e-05
1.0891e-05
1.07701e-05
1.06764e-05
1.06113e-05
1.0578e-05
1.05774e-05
1.06212e-05
1.07105e-05
1.08687e-05
1.11152e-05
1.58721e-05
1.63169e-05
1.69643e-05
1.77156e-05
1.85658e-05
1.94799e-05
2.04166e-05
2.13743e-05
2.23313e-05
2.32774e-05
2.42071e-05
2.51162e-05
2.59995e-05
2.68546e-05
2.76797e-05
2.84714e-05
2.92309e-05
2.99542e-05
3.06432e-05
3.1297e-05
3.19165e-05
3.25016e-05
3.30522e-05
3.3568e-05
3.40496e-05
3.44969e-05
3.49104e-05
3.52902e-05
3.56369e-05
3.59507e-05
3.62322e-05
3.64817e-05
3.66996e-05
3.68864e-05
3.70423e-05
3.71678e-05
3.72631e-05
3.73285e-05
3.73644e-05
3.73711e-05
3.73486e-05
3.72971e-05
3.72166e-05
3.71072e-05
3.69688e-05
3.68015e-05
3.66048e-05
3.63788e-05
3.61229e-05
3.5837e-05
3.55206e-05
3.51732e-05
3.47943e-05
3.43834e-05
3.39398e-05
3.34632e-05
3.29531e-05
3.24092e-05
3.18316e-05
3.12207e-05
3.05772e-05
2.99027e-05
2.91991e-05
2.84696e-05
2.77206e-05
2.69567e-05
2.61822e-05
2.54025e-05
2.46242e-05
2.38539e-05
2.30981e-05
2.23626e-05
2.16524e-05
2.09717e-05
2.03236e-05
1.97106e-05
1.91344e-05
1.85957e-05
1.80951e-05
1.7632e-05
1.72069e-05
1.68176e-05
1.64645e-05
1.6146e-05
1.58614e-05
1.56097e-05
1.53896e-05
1.51992e-05
1.50382e-05
1.49049e-05
1.47992e-05
1.47187e-05
1.46662e-05
1.4647e-05
1.46628e-05
1.47303e-05
1.48514e-05
1.50575e-05
1.5374e-05
2.12458e-05
2.17458e-05
2.24927e-05
2.3359e-05
2.43303e-05
2.53649e-05
2.64131e-05
2.74725e-05
2.85184e-05
2.95401e-05
3.0533e-05
3.14937e-05
3.24179e-05
3.3304e-05
3.41513e-05
3.4957e-05
3.57233e-05
3.64465e-05
3.71297e-05
3.77721e-05
3.83754e-05
3.89398e-05
3.94656e-05
3.99528e-05
4.04021e-05
4.08137e-05
4.11883e-05
4.15261e-05
4.18279e-05
4.2094e-05
4.23251e-05
4.25216e-05
4.26841e-05
4.2813e-05
4.29088e-05
4.29719e-05
4.30027e-05
4.30015e-05
4.29689e-05
4.29051e-05
4.28104e-05
4.2685e-05
4.2529e-05
4.23427e-05
4.2126e-05
4.18791e-05
4.1602e-05
4.12947e-05
4.0957e-05
4.0589e-05
4.01905e-05
3.97614e-05
3.93019e-05
3.88118e-05
3.82913e-05
3.77408e-05
3.71607e-05
3.65519e-05
3.59157e-05
3.52536e-05
3.45679e-05
3.38616e-05
3.31379e-05
3.24013e-05
3.16565e-05
3.09125e-05
3.01738e-05
2.94438e-05
2.87276e-05
2.80299e-05
2.73549e-05
2.67058e-05
2.60851e-05
2.54945e-05
2.49355e-05
2.44089e-05
2.39154e-05
2.34546e-05
2.30266e-05
2.26301e-05
2.22656e-05
2.193e-05
2.16238e-05
2.13453e-05
2.10937e-05
2.08683e-05
2.06675e-05
2.04898e-05
2.03352e-05
2.02023e-05
2.00918e-05
2.00015e-05
1.99358e-05
1.99027e-05
1.99054e-05
1.99659e-05
2.00874e-05
2.03102e-05
2.0667e-05
2.75588e-05
2.80711e-05
2.88712e-05
2.98073e-05
3.08533e-05
3.19627e-05
3.30786e-05
3.41977e-05
3.52928e-05
3.6353e-05
3.73746e-05
3.83549e-05
3.92905e-05
4.01806e-05
4.10253e-05
4.18222e-05
4.25745e-05
4.32787e-05
4.39384e-05
4.45535e-05
4.5126e-05
4.56564e-05
4.61452e-05
4.65925e-05
4.69993e-05
4.7366e-05
4.76932e-05
4.79814e-05
4.82316e-05
4.8444e-05
4.86195e-05
4.87586e-05
4.88619e-05
4.893e-05
4.89635e-05
4.89628e-05
4.89285e-05
4.88612e-05
4.87614e-05
4.86295e-05
4.84659e-05
4.82711e-05
4.80454e-05
4.77892e-05
4.75028e-05
4.71866e-05
4.68408e-05
4.64659e-05
4.60622e-05
4.56302e-05
4.51703e-05
4.4683e-05
4.41691e-05
4.36296e-05
4.30655e-05
4.24782e-05
4.18694e-05
4.12414e-05
4.05967e-05
3.99383e-05
3.92698e-05
3.85952e-05
3.7919e-05
3.7246e-05
3.6581e-05
3.5929e-05
3.52991e-05
3.46903e-05
3.41045e-05
3.35434e-05
3.30077e-05
3.24976e-05
3.20126e-05
3.15522e-05
3.11158e-05
3.0703e-05
3.03134e-05
2.99458e-05
2.95998e-05
2.92735e-05
2.89676e-05
2.86781e-05
2.84062e-05
2.815e-05
2.79092e-05
2.76832e-05
2.74712e-05
2.72717e-05
2.70858e-05
2.69128e-05
2.67545e-05
2.66092e-05
2.64836e-05
2.63886e-05
2.63293e-05
2.63335e-05
2.64067e-05
2.65984e-05
2.69494e-05
3.47013e-05
3.5183e-05
3.59903e-05
3.69532e-05
3.80317e-05
3.91758e-05
4.03229e-05
4.14679e-05
4.25816e-05
4.36526e-05
4.46779e-05
4.56553e-05
4.65823e-05
4.74584e-05
4.82842e-05
4.90581e-05
4.97835e-05
5.04574e-05
5.10839e-05
5.16629e-05
5.2197e-05
5.26868e-05
5.3133e-05
5.35358e-05
5.38964e-05
5.42151e-05
5.44929e-05
5.47302e-05
5.49281e-05
5.50872e-05
5.52081e-05
5.52916e-05
5.53385e-05
5.53495e-05
5.53253e-05
5.52665e-05
5.51738e-05
5.50481e-05
5.489e-05
5.47003e-05
5.44796e-05
5.42286e-05
5.3948e-05
5.36386e-05
5.3301e-05
5.29361e-05
5.25447e-05
5.21277e-05
5.16862e-05
5.12213e-05
5.07343e-05
5.02267e-05
4.97002e-05
4.91568e-05
4.85988e-05
4.8029e-05
4.74502e-05
4.68661e-05
4.62803e-05
4.56971e-05
4.51208e-05
4.45558e-05
4.40066e-05
4.3477e-05
4.29704e-05
4.24889e-05
4.20377e-05
4.16146e-05
4.12165e-05
4.08411e-05
4.04853e-05
4.01459e-05
3.98199e-05
3.95045e-05
3.91978e-05
3.88985e-05
3.86056e-05
3.83175e-05
3.80338e-05
3.77525e-05
3.74748e-05
3.71966e-05
3.69198e-05
3.6643e-05
3.63668e-05
3.60913e-05
3.58167e-05
3.55423e-05
3.52704e-05
3.50017e-05
3.4739e-05
3.44818e-05
3.42391e-05
3.40252e-05
3.38476e-05
3.37398e-05
3.37106e-05
3.38189e-05
3.41167e-05
4.25717e-05
4.29866e-05
4.37627e-05
4.47177e-05
4.57957e-05
4.69445e-05
4.80963e-05
4.92435e-05
5.0355e-05
5.14186e-05
5.24318e-05
5.33928e-05
5.42994e-05
5.51514e-05
5.59502e-05
5.66941e-05
5.73871e-05
5.80263e-05
5.86162e-05
5.91571e-05
5.96515e-05
6.01006e-05
6.05048e-05
6.08647e-05
6.11814e-05
6.14555e-05
6.1688e-05
6.18794e-05
6.2031e-05
6.21433e-05
6.22174e-05
6.22541e-05
6.22543e-05
6.2219e-05
6.2149e-05
6.20453e-05
6.19088e-05
6.17407e-05
6.15418e-05
6.13135e-05
6.10566e-05
6.07723e-05
6.04618e-05
6.01263e-05
5.97671e-05
5.93858e-05
5.89837e-05
5.85628e-05
5.81248e-05
5.76718e-05
5.72062e-05
5.67303e-05
5.62473e-05
5.57602e-05
5.52725e-05
5.47881e-05
5.4311e-05
5.38456e-05
5.33963e-05
5.29673e-05
5.25628e-05
5.21861e-05
5.18399e-05
5.15258e-05
5.12435e-05
5.09917e-05
5.07676e-05
5.05682e-05
5.03854e-05
5.02127e-05
5.00439e-05
4.98728e-05
4.96949e-05
4.95059e-05
4.93036e-05
4.90864e-05
4.88536e-05
4.86037e-05
4.83371e-05
4.80521e-05
4.77511e-05
4.74304e-05
4.7093e-05
4.67385e-05
4.63686e-05
4.59849e-05
4.55883e-05
4.51797e-05
4.4763e-05
4.43397e-05
4.39146e-05
4.34884e-05
4.30724e-05
4.26842e-05
4.23344e-05
4.20622e-05
4.18803e-05
4.18565e-05
4.20524e-05
5.11027e-05
5.14219e-05
5.21379e-05
5.30594e-05
5.41141e-05
5.52475e-05
5.63871e-05
5.7522e-05
5.86193e-05
5.96658e-05
6.06592e-05
6.15976e-05
6.24794e-05
6.33045e-05
6.40745e-05
6.47881e-05
6.54495e-05
6.60559e-05
6.66122e-05
6.71189e-05
6.75787e-05
6.79928e-05
6.83619e-05
6.86866e-05
6.89681e-05
6.92072e-05
6.94048e-05
6.95618e-05
6.96796e-05
6.97589e-05
6.98009e-05
6.98066e-05
6.97773e-05
6.9714e-05
6.96182e-05
6.94909e-05
6.93336e-05
6.91477e-05
6.89346e-05
6.86961e-05
6.84336e-05
6.81489e-05
6.78437e-05
6.75199e-05
6.71797e-05
6.68253e-05
6.64591e-05
6.60838e-05
6.57021e-05
6.53171e-05
6.49323e-05
6.4551e-05
6.41775e-05
6.38155e-05
6.34694e-05
6.31437e-05
6.28426e-05
6.25706e-05
6.23311e-05
6.21275e-05
6.19617e-05
6.18346e-05
6.17453e-05
6.16915e-05
6.16682e-05
6.16692e-05
6.1686e-05
6.17105e-05
6.17327e-05
6.1743e-05
6.17332e-05
6.16956e-05
6.16249e-05
6.1517e-05
6.13698e-05
6.11824e-05
6.0955e-05
6.0687e-05
6.03798e-05
6.00327e-05
5.96495e-05
5.92272e-05
5.87703e-05
5.82794e-05
5.77578e-05
5.72082e-05
5.66331e-05
5.60346e-05
5.54182e-05
5.4787e-05
5.41471e-05
5.35008e-05
5.28615e-05
5.22505e-05
5.16818e-05
5.11998e-05
5.08223e-05
5.06251e-05
5.06801e-05
6.02637e-05
6.04648e-05
6.11e-05
6.1971e-05
6.29884e-05
6.40948e-05
6.52133e-05
6.63294e-05
6.74079e-05
6.84346e-05
6.94072e-05
7.03237e-05
7.11826e-05
7.19841e-05
7.27298e-05
7.34186e-05
7.40551e-05
7.46367e-05
7.51683e-05
7.56505e-05
7.60865e-05
7.64775e-05
7.68244e-05
7.71277e-05
7.73889e-05
7.76089e-05
7.77887e-05
7.79295e-05
7.80328e-05
7.80996e-05
7.81313e-05
7.81292e-05
7.8095e-05
7.803e-05
7.7936e-05
7.78146e-05
7.76676e-05
7.7497e-05
7.73049e-05
7.70934e-05
7.68647e-05
7.66213e-05
7.63656e-05
7.61004e-05
7.58284e-05
7.55529e-05
7.52771e-05
7.50045e-05
7.47388e-05
7.44839e-05
7.4244e-05
7.40231e-05
7.38258e-05
7.36564e-05
7.3519e-05
7.34178e-05
7.3356e-05
7.33367e-05
7.33614e-05
7.34305e-05
7.35427e-05
7.36951e-05
7.38822e-05
7.4097e-05
7.43299e-05
7.45697e-05
7.48039e-05
7.5019e-05
7.52056e-05
7.53527e-05
7.5451e-05
7.54928e-05
7.54732e-05
7.53887e-05
7.52382e-05
7.50221e-05
7.47417e-05
7.43975e-05
7.39923e-05
7.35266e-05
7.30054e-05
7.24268e-05
7.17967e-05
7.11169e-05
7.03919e-05
6.9626e-05
6.88228e-05
6.79861e-05
6.71228e-05
6.62376e-05
6.53381e-05
6.44278e-05
6.35229e-05
6.26478e-05
6.18206e-05
6.1091e-05
6.04823e-05
6.00784e-05
5.99621e-05
7.00549e-05
7.01204e-05
7.0661e-05
7.14712e-05
7.24444e-05
7.35193e-05
7.46146e-05
7.57117e-05
7.67733e-05
7.77838e-05
7.87405e-05
7.96414e-05
8.04851e-05
8.12717e-05
8.20032e-05
8.26785e-05
8.33024e-05
8.38724e-05
8.43937e-05
8.48671e-05
8.52958e-05
8.56813e-05
8.60246e-05
8.63264e-05
8.65883e-05
8.68113e-05
8.69967e-05
8.71458e-05
8.72605e-05
8.73419e-05
8.73919e-05
8.7412e-05
8.74044e-05
8.73707e-05
8.73133e-05
8.72341e-05
8.71357e-05
8.70206e-05
8.68913e-05
8.67508e-05
8.66019e-05
8.64477e-05
8.62915e-05
8.61366e-05
8.59867e-05
8.58456e-05
8.57171e-05
8.56057e-05
8.55152e-05
8.54502e-05
8.54148e-05
8.54131e-05
8.54495e-05
8.55274e-05
8.56499e-05
8.58196e-05
8.60377e-05
8.63045e-05
8.66185e-05
8.69764e-05
8.73728e-05
8.78003e-05
8.82493e-05
8.87084e-05
8.9164e-05
8.96015e-05
9.00048e-05
9.03582e-05
9.06537e-05
9.08799e-05
9.10279e-05
9.10906e-05
9.10641e-05
9.0946e-05
9.07364e-05
9.04371e-05
9.00505e-05
8.95785e-05
8.90249e-05
8.83917e-05
8.76849e-05
8.69037e-05
8.6055e-05
8.5142e-05
8.41702e-05
8.31454e-05
8.20725e-05
8.09569e-05
7.9807e-05
7.86289e-05
7.74316e-05
7.62205e-05
7.50137e-05
7.38395e-05
7.27203e-05
7.17111e-05
7.08415e-05
7.02038e-05
6.98927e-05
8.04985e-05
8.04144e-05
8.08521e-05
8.15968e-05
8.25248e-05
8.35697e-05
8.46454e-05
8.57291e-05
8.67809e-05
8.77839e-05
8.87349e-05
8.96317e-05
9.04729e-05
9.12587e-05
9.1991e-05
9.26691e-05
9.32977e-05
9.38747e-05
9.44052e-05
9.48904e-05
9.53337e-05
9.57367e-05
9.61005e-05
9.64261e-05
9.67151e-05
9.69688e-05
9.71887e-05
9.73763e-05
9.75337e-05
9.76626e-05
9.7765e-05
9.78429e-05
9.78987e-05
9.79347e-05
9.79537e-05
9.79582e-05
9.79512e-05
9.79358e-05
9.79152e-05
9.78928e-05
9.78722e-05
9.78571e-05
9.78512e-05
9.78585e-05
9.78829e-05
9.79289e-05
9.80005e-05
9.81022e-05
9.8238e-05
9.8412e-05
9.86278e-05
9.88888e-05
9.9198e-05
9.95573e-05
9.99677e-05
0.000100429
0.000100941
0.000101498
0.000102097
0.000102731
0.000103389
0.000104061
0.000104733
0.000105391
0.00010602
0.000106601
0.000107115
0.000107549
0.000107896
0.000108145
0.000108288
0.000108318
0.000108233
0.000108032
0.000107716
0.000107287
0.00010675
0.000106108
0.000105365
0.000104525
0.000103594
0.000102572
0.000101468
0.000100286
9.90318e-05
9.7713e-05
9.6336e-05
9.49075e-05
9.34375e-05
9.19336e-05
9.04061e-05
8.88624e-05
8.73228e-05
8.58195e-05
8.43794e-05
8.30633e-05
8.1908e-05
8.1014e-05
8.04894e-05
9.16313e-05
9.13864e-05
9.17173e-05
9.23967e-05
9.32834e-05
9.43046e-05
9.53691e-05
9.64495e-05
9.75035e-05
9.85123e-05
9.94724e-05
0.000100381
0.000101237
0.00010204
0.000102793
0.000103495
0.00010415
0.000104757
0.000105321
0.000105843
0.000106327
0.000106775
0.000107188
0.000107567
0.000107914
0.000108231
0.000108518
0.000108779
0.000109014
0.000109227
0.00010942
0.000109594
0.000109754
0.000109901
0.000110038
0.000110169
0.000110298
0.000110427
0.000110561
0.000110703
0.000110857
0.000111028
0.000111218
0.000111434
0.000111678
0.000111955
0.000112268
0.000112623
0.000113021
0.000113467
0.000113963
0.00011451
0.000115109
0.000115761
0.000116463
0.000117213
0.000118006
0.000118836
0.000119693
0.000120568
0.000121447
0.000122318
0.000123163
0.000123967
0.000124713
0.000125384
0.000125951
0.000126413
0.00012676
0.000126982
0.000127073
0.000127026
0.000126841
0.000126517
0.000126057
0.000125464
0.000124742
0.000123897
0.000122933
0.000121854
0.000120669
0.000119378
0.00011799
0.000116509
0.000114944
0.000113303
0.000111593
0.000109824
0.000108006
0.000106148
0.000104263
0.00010236
0.000100461
9.8602e-05
9.68161e-05
9.51696e-05
9.37073e-05
9.25383e-05
9.17852e-05
0.000103499
0.000103085
0.000103309
0.000103927
0.00010478
0.000105788
0.000106854
0.000107945
0.000109017
0.000110049
0.000111037
0.000111977
0.000112869
0.000113712
0.000114508
0.000115258
0.000115965
0.000116629
0.000117253
0.000117841
0.000118396
0.00011892
0.000119413
0.000119879
0.000120317
0.000120731
0.000121122
0.000121492
0.000121843
0.000122178
0.0001225
0.000122811
0.000123114
0.000123412
0.00012371
0.000124009
0.000124315
0.00012463
0.00012496
0.000125307
0.000125676
0.000126071
0.000126496
0.000126955
0.000127452
0.000127991
0.000128574
0.000129204
0.000129885
0.000130617
0.000131401
0.000132237
0.000133124
0.000134059
0.000135037
0.000136052
0.000137098
0.000138164
0.00013924
0.000140311
0.000141364
0.000142382
0.000143348
0.000144245
0.000145056
0.000145764
0.000146339
0.000146784
0.000147089
0.000147245
0.000147247
0.00014709
0.000146773
0.000146297
0.000145664
0.00014488
0.00014395
0.000142877
0.000141669
0.00014033
0.000138868
0.000137285
0.00013559
0.00013379
0.000131892
0.000129906
0.000127841
0.000125707
0.000123518
0.000121284
0.000119018
0.000116732
0.00011445
0.000112214
0.00011006
0.000108063
0.000106276
0.000104816
0.000103823
0.00011615
0.000115562
0.000115682
0.000116246
0.000117077
0.000118084
0.000119167
0.000120287
0.000121396
0.000122471
0.000123508
0.000124503
0.000125454
0.000126362
0.000127228
0.000128053
0.00012884
0.000129589
0.000130305
0.000130989
0.000131646
0.000132277
0.000132885
0.00013347
0.000134036
0.000134582
0.000135112
0.000135627
0.000136131
0.000136626
0.000137114
0.000137598
0.000138082
0.00013857
0.000139064
0.000139568
0.000140086
0.000140623
0.000141181
0.000141766
0.00014238
0.000143028
0.000143713
0.000144438
0.000145208
0.000146023
0.000146887
0.000147801
0.000148766
0.000149782
0.000150847
0.000151958
0.000153113
0.000154306
0.00015553
0.000156776
0.000158036
0.000159296
0.000160543
0.000161764
0.00016294
0.000164057
0.000165095
0.000166039
0.00016687
0.000167573
0.000168119
0.000168512
0.000168743
0.000168804
0.000168691
0.000168399
0.000167928
0.00016728
0.000166457
0.000165464
0.000164308
0.000162992
0.000161524
0.000159909
0.000158156
0.000156266
0.00015425
0.000152113
0.000149866
0.000147518
0.00014508
0.000142565
0.000139986
0.000137357
0.000134691
0.000132003
0.00012932
0.000126687
0.000124148
0.000121783
0.000119655
0.000117892
0.000116648
0.000129636
0.000128869
0.000128891
0.000129411
0.000130233
0.000131257
0.000132375
0.000133543
0.00013471
0.000135851
0.000136961
0.000138034
0.000139071
0.00014007
0.000141034
0.000141961
0.000142858
0.000143722
0.000144559
0.000145371
0.000146161
0.000146933
0.000147687
0.000148426
0.000149151
0.000149863
0.000150566
0.00015126
0.00015195
0.000152637
0.000153325
0.000154016
0.000154713
0.00015542
0.000156141
0.000156878
0.000157637
0.00015842
0.000159231
0.000160073
0.000160951
0.000161868
0.000162825
0.000163826
0.000164873
0.000165968
0.00016711
0.0001683
0.000169538
0.00017082
0.000172144
0.000173506
0.000174899
0.000176316
0.000177748
0.000179185
0.000180614
0.000182024
0.000183398
0.000184722
0.000185978
0.00018715
0.00018822
0.000189172
0.000189989
0.000190654
0.000191142
0.000191457
0.000191593
0.00019154
0.000191294
0.000190853
0.000190215
0.000189382
0.000188358
0.000187147
0.000185756
0.000184188
0.000182452
0.000180554
0.0001785
0.000176295
0.000173948
0.000171465
0.000168858
0.000166137
0.000163314
0.000160404
0.000157423
0.000154384
0.000151304
0.000148199
0.000145098
0.000142053
0.000139113
0.000136366
0.000133885
0.000131809
0.000130309
0.000144
0.000143057
0.000142988
0.000143475
0.000144304
0.000145362
0.000146534
0.000147772
0.000149019
0.000150251
0.000151457
0.000152636
0.000153783
0.000154901
0.000155989
0.000157048
0.000158083
0.000159092
0.000160079
0.000161048
0.000162002
0.000162944
0.000163874
0.000164796
0.00016571
0.000166619
0.000167523
0.000168426
0.000169331
0.000170238
0.000171151
0.000172074
0.000173008
0.000173958
0.000174927
0.000175917
0.000176932
0.000177976
0.000179052
0.000180163
0.000181311
0.0001825
0.00018373
0.000185003
0.000186321
0.000187683
0.000189089
0.000190537
0.000192024
0.000193547
0.000195101
0.000196679
0.000198274
0.000199876
0.000201477
0.000203062
0.000204621
0.000206137
0.000207597
0.000208985
0.000210283
0.000211475
0.000212544
0.000213475
0.000214252
0.000214856
0.000215267
0.000215489
0.000215515
0.000215337
0.000214951
0.000214352
0.000213542
0.000212521
0.000211292
0.000209861
0.000208232
0.000206411
0.000204406
0.000202221
0.000199866
0.000197342
0.000194661
0.000191828
0.000188856
0.000185755
0.000182541
0.000179228
0.000175835