/*--------------------------------*- C++ -*----------------------------------*\
  =========                 |
  \\      /  F ield         | OpenFOAM: The Open Source CFD Toolbox
   \\    /   O peration     | Website:  https://openfoam.org
    \\  /    A nd           | Version:  8
     \\/     M anipulation  |
\*---------------------------------------------------------------------------*/
FoamFile
{
    version     2.0;
    format      ascii;
    class       volScalarField;
    location    "10000";
    object      p;
}
// * * * * * * * * * * * * * * * * * * * * * * * * * * * * * * * * * * * * * //

dimensions      [0 2 -2 0 0 0 0];

internalField   nonuniform List<scalar> 
14751
(
-1.43862e-11
2.69708e-06
6.1476e-06
9.63328e-06
1.34905e-05
1.75366e-05
2.17252e-05
2.60489e-05
3.04322e-05
3.48419e-05
3.9228e-05
4.35602e-05
4.77943e-05
5.19016e-05
5.5859e-05
5.9635e-05
6.32248e-05
6.6602e-05
6.97675e-05
7.27057e-05
7.54202e-05
7.79066e-05
8.01685e-05
8.22056e-05
8.40257e-05
8.56331e-05
8.7034e-05
8.82368e-05
8.92476e-05
9.00746e-05
9.07257e-05
9.12084e-05
9.15308e-05
9.16997e-05
9.17222e-05
9.16065e-05
9.13572e-05
9.09816e-05
9.04845e-05
8.98733e-05
8.91511e-05
8.83232e-05
8.7395e-05
8.63684e-05
8.52497e-05
8.40412e-05
8.27463e-05
8.13686e-05
7.99103e-05
7.83747e-05
7.67645e-05
7.50811e-05
7.33282e-05
7.15074e-05
6.96209e-05
6.76711e-05
6.56598e-05
6.35894e-05
6.14616e-05
5.92761e-05
5.70364e-05
5.4741e-05
5.23908e-05
4.99867e-05
4.75258e-05
4.50085e-05
4.24333e-05
3.9802e-05
3.71145e-05
3.43761e-05
3.15941e-05
2.87788e-05
2.5945e-05
2.31087e-05
2.02875e-05
1.74991e-05
1.47602e-05
1.20837e-05
9.48597e-06
6.97211e-06
4.56401e-06
2.26229e-06
8.94507e-08
-1.94623e-06
-3.8265e-06
-5.53547e-06
-7.05197e-06
-8.35884e-06
-9.43125e-06
-1.0252e-05
-1.07864e-05
-1.10259e-05
-1.09438e-05
-1.05029e-05
-9.73262e-06
-8.55352e-06
-7.00274e-06
-5.06881e-06
-3.00222e-06
1.44723e-09
2.69854e-06
6.14879e-06
9.63431e-06
1.34913e-05
1.75372e-05
2.17257e-05
2.60493e-05
3.04326e-05
3.48422e-05
3.92282e-05
4.35604e-05
4.77944e-05
5.19016e-05
5.5859e-05
5.96349e-05
6.32246e-05
6.66017e-05
6.97671e-05
7.27052e-05
7.54196e-05
7.79059e-05
8.01677e-05
8.22048e-05
8.40249e-05
8.56323e-05
8.70333e-05
8.82361e-05
8.92468e-05
9.00739e-05
9.0725e-05
9.12079e-05
9.15302e-05
9.16992e-05
9.17218e-05
9.16061e-05
9.13569e-05
9.09814e-05
9.04842e-05
8.98731e-05
8.91509e-05
8.83231e-05
8.73949e-05
8.63684e-05
8.52497e-05
8.40413e-05
8.27464e-05
8.13687e-05
7.99104e-05
7.83749e-05
7.67647e-05
7.50813e-05
7.33285e-05
7.15076e-05
6.96211e-05
6.76714e-05
6.566e-05
6.35896e-05
6.14618e-05
5.92762e-05
5.70364e-05
5.47409e-05
5.23906e-05
4.99864e-05
4.75253e-05
4.50079e-05
4.24324e-05
3.98009e-05
3.71134e-05
3.43749e-05
3.15929e-05
2.87777e-05
2.59441e-05
2.3108e-05
2.02872e-05
1.74991e-05
1.47607e-05
1.20846e-05
9.48726e-06
6.97378e-06
4.56602e-06
2.26459e-06
9.20074e-08
-1.94347e-06
-3.82358e-06
-5.53244e-06
-7.04886e-06
-8.35569e-06
-9.42808e-06
-1.02488e-05
-1.07833e-05
-1.10229e-05
-1.09408e-05
-1.05e-05
-9.72993e-06
-8.55106e-06
-7.00049e-06
-5.06666e-06
-3.00029e-06
3.12392e-09
2.69923e-06
6.14926e-06
9.63414e-06
1.34908e-05
1.75367e-05
2.17252e-05
2.60492e-05
3.04327e-05
3.48426e-05
3.92288e-05
4.35612e-05
4.77954e-05
5.19028e-05
5.58603e-05
5.96363e-05
6.3226e-05
6.66028e-05
6.97681e-05
7.2706e-05
7.54201e-05
7.79061e-05
8.01678e-05
8.22047e-05
8.40247e-05
8.5632e-05
8.70329e-05
8.82356e-05
8.92464e-05
9.00734e-05
9.07246e-05
9.12074e-05
9.15298e-05
9.16988e-05
9.17214e-05
9.16058e-05
9.13566e-05
9.09812e-05
9.04841e-05
8.9873e-05
8.91509e-05
8.83231e-05
8.7395e-05
8.63685e-05
8.52499e-05
8.40415e-05
8.27467e-05
8.1369e-05
7.99108e-05
7.83753e-05
7.67651e-05
7.50817e-05
7.33289e-05
7.15081e-05
6.96216e-05
6.76719e-05
6.56605e-05
6.35901e-05
6.14622e-05
5.92765e-05
5.70367e-05
5.47411e-05
5.23906e-05
4.99862e-05
4.7525e-05
4.50073e-05
4.24316e-05
3.97999e-05
3.71123e-05
3.43737e-05
3.15918e-05
2.87767e-05
2.59433e-05
2.31076e-05
2.02873e-05
1.74997e-05
1.47618e-05
1.20863e-05
9.48946e-06
6.97645e-06
4.56911e-06
2.26799e-06
9.56307e-08
-1.93972e-06
-3.81981e-06
-5.52871e-06
-7.0452e-06
-8.35214e-06
-9.42464e-06
-1.02455e-05
-1.07802e-05
-1.10198e-05
-1.09379e-05
-1.04972e-05
-9.72725e-06
-8.54857e-06
-6.99827e-06
-5.06438e-06
-2.99934e-06
4.28339e-09
2.69861e-06
6.14848e-06
9.6326e-06
1.34888e-05
1.7535e-05
2.17238e-05
2.60483e-05
3.04325e-05
3.4843e-05
3.92297e-05
4.35626e-05
4.77973e-05
5.1905e-05
5.58629e-05
5.96389e-05
6.32285e-05
6.66051e-05
6.977e-05
7.27075e-05
7.54212e-05
7.79067e-05
8.0168e-05
8.22046e-05
8.40243e-05
8.56313e-05
8.70321e-05
8.82347e-05
8.92453e-05
9.00723e-05
9.07234e-05
9.12062e-05
9.15286e-05
9.16977e-05
9.17202e-05
9.16047e-05
9.13556e-05
9.09802e-05
9.04832e-05
8.98722e-05
8.91502e-05
8.83225e-05
8.73945e-05
8.63681e-05
8.52496e-05
8.40413e-05
8.27466e-05
8.1369e-05
7.99109e-05
7.83756e-05
7.67655e-05
7.50823e-05
7.33296e-05
7.15089e-05
6.96225e-05
6.76728e-05
6.56615e-05
6.35912e-05
6.14634e-05
5.92777e-05
5.70379e-05
5.47424e-05
5.23918e-05
4.99875e-05
4.75262e-05
4.50085e-05
4.24329e-05
3.98013e-05
3.71136e-05
3.43751e-05
3.15933e-05
2.87783e-05
2.59451e-05
2.31096e-05
2.02896e-05
1.75024e-05
1.47648e-05
1.20897e-05
9.49329e-06
6.98062e-06
4.57358e-06
2.27262e-06
1.00307e-07
-1.93513e-06
-3.81542e-06
-5.52461e-06
-7.04142e-06
-8.3487e-06
-9.42152e-06
-1.02428e-05
-1.07777e-05
-1.10176e-05
-1.0936e-05
-1.04952e-05
-9.7256e-06
-8.54707e-06
-6.99707e-06
-5.06273e-06
-3.00045e-06
4.21906e-09
2.6962e-06
6.1458e-06
9.62906e-06
1.34846e-05
1.75311e-05
2.17203e-05
2.60456e-05
3.04306e-05
3.48417e-05
3.9229e-05
4.35624e-05
4.77977e-05
5.19059e-05
5.5864e-05
5.96401e-05
6.32296e-05
6.66058e-05
6.97701e-05
7.2707e-05
7.542e-05
7.7905e-05
8.01657e-05
8.22019e-05
8.40212e-05
8.56279e-05
8.70285e-05
8.82309e-05
8.92414e-05
9.00683e-05
9.07195e-05
9.12023e-05
9.15248e-05
9.16939e-05
9.17167e-05
9.16013e-05
9.13523e-05
9.09771e-05
9.04804e-05
8.98696e-05
8.91478e-05
8.83204e-05
8.73926e-05
8.63666e-05
8.52483e-05
8.40403e-05
8.27459e-05
8.13686e-05
7.99108e-05
7.83757e-05
7.67659e-05
7.5083e-05
7.33306e-05
7.15101e-05
6.9624e-05
6.76746e-05
6.56636e-05
6.35935e-05
6.14659e-05
5.92805e-05
5.7041e-05
5.47457e-05
5.23955e-05
4.99915e-05
4.75307e-05
4.50136e-05
4.24386e-05
3.98077e-05
3.71209e-05
3.43832e-05
3.16022e-05
2.87878e-05
2.59551e-05
2.31199e-05
2.02999e-05
1.75125e-05
1.47747e-05
1.20992e-05
9.5025e-06
6.98944e-06
4.58209e-06
2.2807e-06
1.07892e-07
-1.92815e-06
-3.80911e-06
-5.51905e-06
-7.03659e-06
-8.34461e-06
-9.41809e-06
-1.02401e-05
-1.07755e-05
-1.1016e-05
-1.09348e-05
-1.04942e-05
-9.72511e-06
-8.54685e-06
-6.99724e-06
-5.062e-06
-3.00405e-06
1.81259e-09
2.69103e-06
6.13991e-06
9.62217e-06
1.34766e-05
1.75233e-05
2.17128e-05
2.60387e-05
3.04245e-05
3.48364e-05
3.92243e-05
4.35583e-05
4.77941e-05
5.19028e-05
5.58613e-05
5.96374e-05
6.32268e-05
6.66026e-05
6.97663e-05
7.27025e-05
7.54149e-05
7.78993e-05
8.01595e-05
8.21953e-05
8.40143e-05
8.56208e-05
8.70213e-05
8.82237e-05
8.92342e-05
9.00612e-05
9.07125e-05
9.11956e-05
9.15183e-05
9.16878e-05
9.17109e-05
9.15958e-05
9.13473e-05
9.09725e-05
9.04761e-05
8.98658e-05
8.91444e-05
8.83175e-05
8.73901e-05
8.63645e-05
8.52467e-05
8.40392e-05
8.27452e-05
8.13684e-05
7.99111e-05
7.83764e-05
7.67671e-05
7.50847e-05
7.33327e-05
7.15127e-05
6.9627e-05
6.76781e-05
6.56674e-05
6.35977e-05
6.14705e-05
5.92856e-05
5.70465e-05
5.47517e-05
5.24021e-05
4.99987e-05
4.75387e-05
4.50225e-05
4.24487e-05
3.98192e-05
3.7134e-05
3.43981e-05
3.16189e-05
2.88063e-05
2.59751e-05
2.31409e-05
2.03214e-05
1.75341e-05
1.47959e-05
1.21196e-05
9.52194e-06
7.00768e-06
4.59915e-06
2.2964e-06
1.22188e-07
-1.91536e-06
-3.7979e-06
-5.50944e-06
-7.0285e-06
-8.33802e-06
-9.41282e-06
-1.02362e-05
-1.07728e-05
-1.10141e-05
-1.09341e-05
-1.04939e-05
-9.72574e-06
-8.54811e-06
-6.99918e-06
-5.06275e-06
-3.01075e-06
-4.00401e-09
2.68229e-06
6.12977e-06
9.61091e-06
1.34638e-05
1.75105e-05
2.17002e-05
2.60267e-05
3.04133e-05
3.4826e-05
3.92147e-05
4.35494e-05
4.77859e-05
5.18953e-05
5.58543e-05
5.96307e-05
6.32201e-05
6.65956e-05
6.9759e-05
7.26946e-05
7.54065e-05
7.78903e-05
8.01502e-05
8.21858e-05
8.40047e-05
8.56112e-05
8.70117e-05
8.82142e-05
8.92251e-05
9.00524e-05
9.07041e-05
9.11875e-05
9.15107e-05
9.16807e-05
9.17043e-05
9.15898e-05
9.13418e-05
9.09676e-05
9.04719e-05
8.98621e-05
8.91413e-05
8.8315e-05
8.73883e-05
8.63633e-05
8.52461e-05
8.40392e-05
8.27458e-05
8.13697e-05
7.99129e-05
7.83789e-05
7.67702e-05
7.50883e-05
7.33369e-05
7.15175e-05
6.96324e-05
6.7684e-05
6.56739e-05
6.36048e-05
6.14781e-05
5.92938e-05
5.70552e-05
5.47611e-05
5.24122e-05
5.00096e-05
4.75506e-05
4.50356e-05
4.24632e-05
3.98353e-05
3.7152e-05
3.44181e-05
3.16411e-05
2.88307e-05
2.60015e-05
2.3169e-05
2.03508e-05
1.75641e-05
1.4826e-05
1.21492e-05
9.5508e-06
7.03526e-06
4.62525e-06
2.32067e-06
1.44416e-07
-1.89539e-06
-3.78032e-06
-5.49435e-06
-7.01581e-06
-8.32771e-06
-9.40469e-06
-1.02302e-05
-1.07688e-05
-1.10118e-05
-1.09334e-05
-1.04942e-05
-9.72756e-06
-8.55108e-06
-7.00334e-06
-5.06565e-06
-3.02099e-06
-1.41889e-08
2.66934e-06
6.11468e-06
9.59465e-06
1.34458e-05
1.7492e-05
2.1682e-05
2.60091e-05
3.03967e-05
3.48103e-05
3.92e-05
4.35355e-05
4.77731e-05
5.18834e-05
5.58433e-05
5.96203e-05
6.321e-05
6.65855e-05
6.97487e-05
7.26841e-05
7.53956e-05
7.78792e-05
8.01389e-05
8.21746e-05
8.39936e-05
8.56003e-05
8.70012e-05
8.82041e-05
8.92154e-05
9.00432e-05
9.06955e-05
9.11795e-05
9.15034e-05
9.1674e-05
9.16984e-05
9.15845e-05
9.13373e-05
9.09638e-05
9.04688e-05
8.98598e-05
8.91397e-05
8.83142e-05
8.73882e-05
8.6364e-05
8.52475e-05
8.40413e-05
8.27487e-05
8.13732e-05
7.99172e-05
7.83839e-05
7.67759e-05
7.50948e-05
7.33441e-05
7.15253e-05
6.96409e-05
6.76932e-05
6.56838e-05
6.36153e-05
6.14893e-05
5.93057e-05
5.70678e-05
5.47744e-05
5.24263e-05
5.00246e-05
4.75666e-05
4.50528e-05
4.24818e-05
3.98555e-05
3.71741e-05
3.44423e-05
3.16675e-05
2.88593e-05
2.60322e-05
2.32016e-05
2.03847e-05
1.75988e-05
1.48611e-05
1.2184e-05
9.58503e-06
7.0683e-06
4.65679e-06
2.35026e-06
1.71697e-07
-1.87074e-06
-3.75856e-06
-5.47565e-06
-7.00014e-06
-8.31509e-06
-9.39494e-06
-1.02233e-05
-1.07645e-05
-1.10098e-05
-1.09337e-05
-1.04961e-05
-9.73134e-06
-8.55654e-06
-7.01048e-06
-5.07163e-06
-3.0351e-06
-2.9964e-08
2.6512e-06
6.09362e-06
9.57246e-06
1.34215e-05
1.74671e-05
2.16575e-05
2.59853e-05
3.0374e-05
3.47887e-05
3.91797e-05
4.35165e-05
4.77555e-05
5.18672e-05
5.58285e-05
5.96065e-05
6.31969e-05
6.65729e-05
6.97362e-05
7.26718e-05
7.53833e-05
7.78671e-05
8.0127e-05
8.2163e-05
8.39824e-05
8.55896e-05
8.69911e-05
8.81946e-05
8.92066e-05
9.00352e-05
9.06882e-05
9.1173e-05
9.14977e-05
9.16691e-05
9.16943e-05
9.15813e-05
9.13349e-05
9.09622e-05
9.04681e-05
8.98599e-05
8.91407e-05
8.8316e-05
8.73907e-05
8.63674e-05
8.52517e-05
8.40463e-05
8.27545e-05
8.13798e-05
7.99246e-05
7.83921e-05
7.67848e-05
7.51045e-05
7.33545e-05
7.15366e-05
6.96529e-05
6.7706e-05
6.56973e-05
6.36296e-05
6.15043e-05
5.93214e-05
5.70841e-05
5.47915e-05
5.24442e-05
5.00433e-05
4.75862e-05
4.50735e-05
4.25038e-05
3.9879e-05
3.71993e-05
3.44694e-05
3.16967e-05
2.88906e-05
2.60655e-05
2.32367e-05
2.04212e-05
1.76362e-05
1.48989e-05
1.22217e-05
9.62206e-06
7.10412e-06
4.69099e-06
2.38233e-06
2.01199e-07
-1.84422e-06
-3.73533e-06
-5.45593e-06
-6.98396e-06
-8.30248e-06
-9.38574e-06
-1.02175e-05
-1.07619e-05
-1.101e-05
-1.09366e-05
-1.05011e-05
-9.73848e-06
-8.5658e-06
-7.02183e-06
-5.08195e-06
-3.0538e-06
-5.26109e-08
2.62681e-06
6.06557e-06
9.54332e-06
1.33902e-05
1.74349e-05
2.16259e-05
2.59545e-05
3.03447e-05
3.4761e-05
3.91538e-05
4.34925e-05
4.77335e-05
5.18473e-05
5.58106e-05
5.95902e-05
6.3182e-05
6.6559e-05
6.9723e-05
7.26592e-05
7.53712e-05
7.78555e-05
8.01159e-05
8.21526e-05
8.39728e-05
8.55807e-05
8.6983e-05
8.81873e-05
8.92002e-05
9.00296e-05
9.06835e-05
9.11693e-05
9.14948e-05
9.16672e-05
9.16933e-05
9.15811e-05
9.13356e-05
9.09638e-05
9.04706e-05
8.98632e-05
8.91448e-05
8.8321e-05
8.73965e-05
8.63741e-05
8.52592e-05
8.40547e-05
8.27637e-05
8.13898e-05
7.99354e-05
7.84037e-05
7.67972e-05
7.51177e-05
7.33685e-05
7.15513e-05
6.96684e-05
6.77223e-05
6.57144e-05
6.36474e-05
6.15227e-05
5.93406e-05
5.71039e-05
5.48119e-05
5.24653e-05
5.0065e-05
4.76087e-05
4.50968e-05
4.25282e-05
3.99045e-05
3.72262e-05
3.4498e-05
3.17271e-05
2.8923e-05
2.60999e-05
2.32728e-05
2.04588e-05
1.76748e-05
1.49379e-05
1.22606e-05
9.66032e-06
7.14113e-06
4.72621e-06
2.41524e-06
2.31242e-07
-1.81749e-06
-3.71229e-06
-5.43685e-06
-6.96889e-06
-8.29146e-06
-9.37865e-06
-1.02143e-05
-1.07624e-05
-1.10137e-05
-1.09435e-05
-1.05105e-05
-9.75026e-06
-8.58016e-06
-7.03869e-06
-5.09794e-06
-3.07794e-06
-8.31121e-08
2.59536e-06
6.02977e-06
9.5066e-06
1.33514e-05
1.73951e-05
2.15871e-05
2.5917e-05
3.03093e-05
3.47278e-05
3.91232e-05
4.34643e-05
4.77083e-05
5.18249e-05
5.57908e-05
5.9573e-05
6.31667e-05
6.65453e-05
6.97106e-05
7.26478e-05
7.53607e-05
7.78459e-05
8.01072e-05
8.21448e-05
8.39659e-05
8.55748e-05
8.69781e-05
8.81833e-05
8.91972e-05
9.00276e-05
9.06825e-05
9.11692e-05
9.14957e-05
9.16689e-05
9.16959e-05
9.15846e-05
9.134e-05
9.09691e-05
9.04768e-05
8.98702e-05
8.91527e-05
8.83297e-05
8.7406e-05
8.63845e-05
8.52704e-05
8.40667e-05
8.27765e-05
8.14035e-05
7.99498e-05
7.84189e-05
7.68132e-05
7.51345e-05
7.33861e-05
7.15697e-05
6.96875e-05
6.77421e-05
6.57349e-05
6.36686e-05
6.15446e-05
5.9363e-05
5.71269e-05
5.48353e-05
5.24891e-05
5.00892e-05
4.76333e-05
4.51219e-05
4.25539e-05
3.9931e-05
3.72539e-05
3.45271e-05
3.17578e-05
2.89556e-05
2.61343e-05
2.33091e-05
2.04966e-05
1.77136e-05
1.49772e-05
1.22998e-05
9.69886e-06
7.17836e-06
4.7615e-06
2.44801e-06
2.60869e-07
-1.79152e-06
-3.69041e-06
-5.41933e-06
-6.95588e-06
-8.28298e-06
-9.3746e-06
-1.02146e-05
-1.07669e-05
-1.10219e-05
-1.09552e-05
-1.05253e-05
-9.76768e-06
-8.60063e-06
-7.06212e-06
-5.12069e-06
-3.10837e-06
-1.21926e-07
2.55651e-06
5.98607e-06
9.46222e-06
1.33051e-05
1.73481e-05
2.15417e-05
2.58735e-05
3.02685e-05
3.469e-05
3.90888e-05
4.34333e-05
4.7681e-05
5.18013e-05
5.57707e-05
5.9556e-05
6.31524e-05
6.65331e-05
6.97001e-05
7.26388e-05
7.5353e-05
7.78393e-05
8.01017e-05
8.21405e-05
8.39628e-05
8.55727e-05
8.69772e-05
8.81835e-05
8.91984e-05
9.00298e-05
9.06856e-05
9.11733e-05
9.15007e-05
9.16748e-05
9.17028e-05
9.15923e-05
9.13485e-05
9.09785e-05
9.0487e-05
8.98812e-05
8.91645e-05
8.83424e-05
8.74195e-05
8.63987e-05
8.52854e-05
8.40825e-05
8.27931e-05
8.14208e-05
7.9968e-05
7.84378e-05
7.68329e-05
7.51549e-05
7.34073e-05
7.15916e-05
6.97101e-05
6.77654e-05
6.57588e-05
6.36931e-05
6.15695e-05
5.93884e-05
5.71525e-05
5.48612e-05
5.25152e-05
5.01153e-05
4.76594e-05
4.51482e-05
4.25805e-05
3.9958e-05
3.72816e-05
3.45559e-05
3.17882e-05
2.89877e-05
2.61683e-05
2.33449e-05
2.0534e-05
1.77522e-05
1.50164e-05
1.23389e-05
9.73727e-06
7.21543e-06
4.79643e-06
2.48023e-06
2.89655e-07
-1.76673e-06
-3.67012e-06
-5.40386e-06
-6.94541e-06
-8.27755e-06
-9.37414e-06
-1.0219e-05
-1.07761e-05
-1.10353e-05
-1.09726e-05
-1.05463e-05
-9.79143e-06
-8.62787e-06
-7.09274e-06
-5.15088e-06
-3.14559e-06
-1.68982e-07
2.51036e-06
5.93476e-06
9.4106e-06
1.3252e-05
1.72945e-05
2.14905e-05
2.58249e-05
3.02235e-05
3.46488e-05
3.90519e-05
4.34006e-05
4.76528e-05
5.17776e-05
5.57512e-05
5.95404e-05
6.31399e-05
6.65234e-05
6.96925e-05
7.26331e-05
7.53488e-05
7.78366e-05
8.01004e-05
8.21405e-05
8.39641e-05
8.55752e-05
8.69808e-05
8.81882e-05
8.92041e-05
9.00366e-05
9.06934e-05
9.1182e-05
9.15103e-05
9.16853e-05
9.17141e-05
9.16044e-05
9.13615e-05
9.09922e-05
9.05015e-05
8.98965e-05
8.91805e-05
8.83592e-05
8.7437e-05
8.6417e-05
8.53045e-05
8.41023e-05
8.28136e-05
8.14421e-05
7.999e-05
7.84605e-05
7.68563e-05
7.5179e-05
7.3432e-05
7.1617e-05
6.97362e-05
6.7792e-05
6.57859e-05
6.37205e-05
6.15972e-05
5.94163e-05
5.71805e-05
5.48892e-05
5.2543e-05
5.01428e-05
4.76867e-05
4.51751e-05
4.26073e-05
3.9985e-05
3.73092e-05
3.45844e-05
3.18181e-05
2.90193e-05
2.62019e-05
2.33804e-05
2.05712e-05
1.77907e-05
1.50555e-05
1.23781e-05
9.77563e-06
7.25239e-06
4.83106e-06
2.51194e-06
3.17606e-07
-1.74316e-06
-3.65148e-06
-5.39053e-06
-6.93762e-06
-8.27533e-06
-9.37747e-06
-1.02277e-05
-1.07902e-05
-1.10542e-05
-1.09958e-05
-1.05737e-05
-9.82182e-06
-8.66214e-06
-7.13076e-06
-5.1887e-06
-3.18966e-06
-2.23828e-07
2.45735e-06
5.87644e-06
9.35238e-06
1.31927e-05
1.72353e-05
2.14343e-05
2.5772e-05
3.01751e-05
3.46051e-05
3.90132e-05
4.3367e-05
4.76245e-05
5.17546e-05
5.57331e-05
5.95268e-05
6.313e-05
6.65167e-05
6.96883e-05
7.26312e-05
7.53487e-05
7.78382e-05
8.01035e-05
8.21451e-05
8.39701e-05
8.55825e-05
8.69894e-05
8.81978e-05
8.92148e-05
9.00483e-05
9.07061e-05
9.11955e-05
9.15247e-05
9.17005e-05
9.17302e-05
9.16212e-05
9.1379e-05
9.10104e-05
9.05205e-05
8.99162e-05
8.92009e-05
8.83802e-05
8.74587e-05
8.64395e-05
8.53276e-05
8.41261e-05
8.28381e-05
8.14672e-05
8.00158e-05
7.8487e-05
7.68834e-05
7.52068e-05
7.34604e-05
7.16459e-05
6.97655e-05
6.78218e-05
6.58161e-05
6.37509e-05
6.16276e-05
5.94467e-05
5.72107e-05
5.4919e-05
5.25724e-05
5.01715e-05
4.77148e-05
4.52026e-05
4.26344e-05
4.0012e-05
3.73366e-05
3.46127e-05
3.18477e-05
2.90508e-05
2.62354e-05
2.34161e-05
2.06087e-05
1.78296e-05
1.50951e-05
1.24177e-05
9.81438e-06
7.28964e-06
4.86576e-06
2.54345e-06
3.44995e-07
-1.72057e-06
-3.6343e-06
-5.37917e-06
-6.93237e-06
-8.27624e-06
-9.38452e-06
-1.02407e-05
-1.08092e-05
-1.10784e-05
-1.10249e-05
-1.06074e-05
-9.85877e-06
-8.70333e-06
-7.17599e-06
-5.23395e-06
-3.24029e-06
-2.85922e-07
2.39792e-06
5.81164e-06
9.2881e-06
1.31278e-05
1.7171e-05
2.13737e-05
2.57154e-05
3.01237e-05
3.45592e-05
3.89732e-05
4.33329e-05
4.75965e-05
5.17326e-05
5.57167e-05
5.95155e-05
6.3123e-05
6.65134e-05
6.96879e-05
7.26333e-05
7.53529e-05
7.78443e-05
8.01113e-05
8.21546e-05
8.3981e-05
8.55948e-05
8.7003e-05
8.82126e-05
8.92307e-05
9.00652e-05
9.07239e-05
9.12142e-05
9.15442e-05
9.17208e-05
9.17512e-05
9.16429e-05
9.14013e-05
9.10334e-05
9.05442e-05
8.99404e-05
8.92258e-05
8.84057e-05
8.74848e-05
8.64662e-05
8.53549e-05
8.4154e-05
8.28667e-05
8.14964e-05
8.00456e-05
7.85174e-05
7.69143e-05
7.52382e-05
7.34923e-05
7.16782e-05
6.97982e-05
6.78548e-05
6.58492e-05
6.3784e-05
6.16606e-05
5.94794e-05
5.72429e-05
5.49506e-05
5.26032e-05
5.02014e-05
4.77438e-05
4.52308e-05
4.26621e-05
4.00395e-05
3.73643e-05
3.46414e-05
3.18778e-05
2.90828e-05
2.62697e-05
2.34525e-05
2.06471e-05
1.78694e-05
1.51357e-05
1.24583e-05
9.85402e-06
7.32763e-06
4.90092e-06
2.57512e-06
3.72149e-07
-1.69866e-06
-3.61831e-06
-5.36955e-06
-6.92947e-06
-8.28008e-06
-9.39512e-06
-1.02578e-05
-1.08328e-05
-1.11079e-05
-1.10597e-05
-1.06472e-05
-9.90202e-06
-8.7511e-06
-7.22807e-06
-5.28627e-06
-3.29713e-06
-3.54884e-07
2.33232e-06
5.74069e-06
9.21802e-06
1.30576e-05
1.71018e-05
2.1309e-05
2.56554e-05
3.00697e-05
3.45114e-05
3.89321e-05
4.32985e-05
4.7569e-05
5.17119e-05
5.57022e-05
5.95067e-05
6.3119e-05
6.65135e-05
6.96913e-05
7.26396e-05
7.53617e-05
7.78552e-05
8.01241e-05
8.21692e-05
8.39972e-05
8.56124e-05
8.7022e-05
8.82327e-05
8.92519e-05
9.00874e-05
9.0747e-05
9.12381e-05
9.15689e-05
9.17461e-05
9.17772e-05
9.16695e-05
9.14286e-05
9.10612e-05
9.05726e-05
8.99693e-05
8.92552e-05
8.84358e-05
8.75153e-05
8.64974e-05
8.53866e-05
8.41862e-05
8.28994e-05
8.15297e-05
8.00794e-05
7.85516e-05
7.6949e-05
7.52733e-05
7.35278e-05
7.1714e-05
6.98343e-05
6.78909e-05
6.58853e-05
6.382e-05
6.16961e-05
5.95145e-05
5.72772e-05
5.4984e-05
5.26356e-05
5.02327e-05
4.7774e-05
4.52601e-05
4.26908e-05
4.00679e-05
3.73931e-05
3.46711e-05
3.19091e-05
2.91161e-05
2.63053e-05
2.34904e-05
2.06871e-05
1.79109e-05
1.51778e-05
1.25003e-05
9.89491e-06
7.36667e-06
4.93684e-06
2.60721e-06
3.99311e-07
-1.67722e-06
-3.60332e-06
-5.36148e-06
-6.9287e-06
-8.28666e-06
-9.40906e-06
-1.02788e-05
-1.08609e-05
-1.11424e-05
-1.10999e-05
-1.06929e-05
-9.95129e-06
-8.80516e-06
-7.28666e-06
-5.34534e-06
-3.3599e-06
-4.30607e-07
2.2606e-06
5.66365e-06
9.14217e-06
1.29821e-05
1.70277e-05
2.124e-05
2.55919e-05
3.00129e-05
3.44616e-05
3.88899e-05
4.32637e-05
4.75419e-05
5.16923e-05
5.56895e-05
5.95006e-05
6.31181e-05
6.65173e-05
6.96988e-05
7.26504e-05
7.53751e-05
7.78709e-05
8.01419e-05
8.2189e-05
8.40187e-05
8.56355e-05
8.70464e-05
8.82584e-05
8.92787e-05
9.01151e-05
9.07755e-05
9.12675e-05
9.15989e-05
9.17768e-05
9.18085e-05
9.17013e-05
9.14609e-05
9.1094e-05
9.06059e-05
9.00031e-05
8.92895e-05
8.84705e-05
8.75504e-05
8.6533e-05
8.54227e-05
8.42228e-05
8.29364e-05
8.15671e-05
8.01172e-05
7.85899e-05
7.69876e-05
7.53123e-05
7.35669e-05
7.17533e-05
6.98737e-05
6.79302e-05
6.59244e-05
6.38587e-05
6.17343e-05
5.9552e-05
5.73138e-05
5.50195e-05
5.267e-05
5.02658e-05
4.7806e-05
4.52911e-05
4.27211e-05
4.0098e-05
3.74236e-05
3.47026e-05
3.19422e-05
2.91513e-05
2.63428e-05
2.35302e-05
2.07289e-05
1.79541e-05
1.52217e-05
1.25439e-05
9.93726e-06
7.40695e-06
4.97369e-06
2.63987e-06
4.26611e-07
-1.65611e-06
-3.58919e-06
-5.35484e-06
-6.92996e-06
-8.29585e-06
-9.42622e-06
-1.03036e-05
-1.08934e-05
-1.11817e-05
-1.11453e-05
-1.07442e-05
-1.00065e-05
-8.8654e-06
-7.35163e-06
-5.41106e-06
-3.42861e-06
-5.13172e-07
2.18252e-06
5.58034e-06
9.06034e-06
1.29009e-05
1.69485e-05
2.11665e-05
2.55246e-05
2.99531e-05
3.44098e-05
3.88464e-05
4.32285e-05
4.75152e-05
5.16739e-05
5.56788e-05
5.94969e-05
6.31203e-05
6.65247e-05
6.97103e-05
7.26655e-05
7.53932e-05
7.78917e-05
8.0165e-05
8.22142e-05
8.40458e-05
8.56641e-05
8.70765e-05
8.82897e-05
8.93111e-05
9.01484e-05
9.08097e-05
9.13024e-05
9.16344e-05
9.18129e-05
9.18451e-05
9.17384e-05
9.14984e-05
9.11319e-05
9.06442e-05
9.00418e-05
8.93285e-05
8.85099e-05
8.75902e-05
8.65732e-05
8.54633e-05
8.42637e-05
8.29777e-05
8.16088e-05
8.01592e-05
7.86322e-05
7.70301e-05
7.5355e-05
7.36098e-05
7.17963e-05
6.99165e-05
6.79729e-05
6.59668e-05
6.39006e-05
6.17755e-05
5.95923e-05
5.7353e-05
5.50576e-05
5.27068e-05
5.03012e-05
4.78402e-05
4.53242e-05
4.27536e-05
4.01302e-05
3.74562e-05
3.47362e-05
3.19774e-05
2.91886e-05
2.63824e-05
2.35722e-05
2.07729e-05
1.79994e-05
1.52675e-05
1.25894e-05
9.98115e-06
7.44851e-06
5.01151e-06
2.67314e-06
4.54094e-07
-1.63531e-06
-3.57589e-06
-5.3496e-06
-6.93322e-06
-8.30765e-06
-9.4466e-06
-1.03322e-05
-1.09302e-05
-1.1226e-05
-1.11961e-05
-1.08013e-05
-1.00677e-05
-8.93189e-06
-7.42306e-06
-5.48353e-06
-3.50348e-06
-6.02851e-07
2.09771e-06
5.49043e-06
8.97214e-06
1.28138e-05
1.68639e-05
2.10882e-05
2.54532e-05
2.98901e-05
3.43554e-05
3.88013e-05
4.31926e-05
4.74886e-05
5.16565e-05
5.56698e-05
5.94957e-05
6.31257e-05
6.65358e-05
6.9726e-05
7.26851e-05
7.54161e-05
7.79175e-05
8.01933e-05
8.22448e-05
8.40784e-05
8.56985e-05
8.71124e-05
8.83268e-05
8.93493e-05
9.01876e-05
9.08496e-05
9.1343e-05
9.16756e-05
9.18546e-05
9.18873e-05
9.17808e-05
9.15412e-05
9.11751e-05
9.06877e-05
9.00855e-05
8.93726e-05
8.85543e-05
8.76348e-05
8.66181e-05
8.55085e-05
8.43092e-05
8.30235e-05
8.16548e-05
8.02055e-05
7.86787e-05
7.70768e-05
7.54018e-05
7.36566e-05
7.1843e-05
6.99631e-05
6.80192e-05
6.60126e-05
6.39458e-05
6.18198e-05
5.96357e-05
5.73952e-05
5.50985e-05
5.27462e-05
5.03393e-05
4.78769e-05
4.53599e-05
4.27885e-05
4.01649e-05
3.74912e-05
3.47722e-05
3.20149e-05
2.92282e-05
2.64244e-05
2.36164e-05
2.08189e-05
1.80468e-05
1.53152e-05
1.26365e-05
1.00266e-05
7.49136e-06
5.0503e-06
2.70701e-06
4.81746e-07
-1.61482e-06
-3.56345e-06
-5.34581e-06
-6.93853e-06
-8.32214e-06
-9.47029e-06
-1.03647e-05
-1.09716e-05
-1.12753e-05
-1.12524e-05
-1.08644e-05
-1.01351e-05
-9.00491e-06
-7.5012e-06
-5.56308e-06
-3.58489e-06
-7.00042e-07
2.00565e-06
5.39342e-06
8.87708e-06
1.27202e-05
1.67733e-05
2.10046e-05
2.53773e-05
2.98233e-05
3.42983e-05
3.87543e-05
4.31557e-05
4.7462e-05
5.16399e-05
5.56624e-05
5.9497e-05
6.3134e-05
6.65504e-05
6.97457e-05
7.27093e-05
7.5444e-05
7.79486e-05
8.02271e-05
8.22811e-05
8.41168e-05
8.57387e-05
8.71542e-05
8.83699e-05
8.93935e-05
9.02327e-05
9.08955e-05
9.13895e-05
9.17226e-05
9.1902e-05
9.1935e-05
9.18289e-05
9.15896e-05
9.12236e-05
9.07365e-05
9.01345e-05
8.94217e-05
8.86036e-05
8.76844e-05
8.66679e-05
8.55584e-05
8.43594e-05
8.30739e-05
8.17053e-05
8.02562e-05
7.87295e-05
7.71276e-05
7.54527e-05
7.37074e-05
7.18937e-05
7.00135e-05
6.80692e-05
6.60621e-05
6.39945e-05
6.18675e-05
5.96823e-05
5.74405e-05
5.51424e-05
5.27887e-05
5.03802e-05
4.79164e-05
4.53982e-05
4.28261e-05
4.02022e-05
3.75288e-05
3.48107e-05
3.2055e-05
2.92703e-05
2.64687e-05
2.36629e-05
2.08672e-05
1.80962e-05
1.53648e-05
1.26854e-05
1.00735e-05
7.53545e-06
5.09002e-06
2.74143e-06
5.09503e-07
-1.59473e-06
-3.55197e-06
-5.34357e-06
-6.94605e-06
-8.33948e-06
-9.4975e-06
-1.04014e-05
-1.10177e-05
-1.13299e-05
-1.13146e-05
-1.09338e-05
-1.02092e-05
-9.08485e-06
-7.58649e-06
-5.65016e-06
-3.67339e-06
-8.05272e-07
1.90575e-06
5.28874e-06
8.77457e-06
1.26195e-05
1.66761e-05
2.09151e-05
2.52963e-05
2.97524e-05
3.42379e-05
3.8705e-05
4.31175e-05
4.74351e-05
5.1624e-05
5.56566e-05
5.95006e-05
6.31455e-05
6.65688e-05
6.97697e-05
7.27382e-05
7.54769e-05
7.7985e-05
8.02665e-05
8.23232e-05
8.41612e-05
8.5785e-05
8.72021e-05
8.84192e-05
8.94439e-05
9.0284e-05
9.09475e-05
9.14421e-05
9.17756e-05
9.19554e-05
9.19887e-05
9.18827e-05
9.16435e-05
9.12777e-05
9.07907e-05
9.01887e-05
8.94761e-05
8.86581e-05
8.7739e-05
8.67226e-05
8.56133e-05
8.44144e-05
8.3129e-05
8.17605e-05
8.03115e-05
7.87848e-05
7.71829e-05
7.55079e-05
7.37625e-05
7.19485e-05
7.0068e-05
6.81231e-05
6.61153e-05
6.40468e-05
6.19188e-05
5.97324e-05
5.74892e-05
5.51896e-05
5.28343e-05
5.04241e-05
4.79589e-05
4.54395e-05
4.28665e-05
4.02422e-05
3.7569e-05
3.48518e-05
3.20976e-05
2.93149e-05
2.65154e-05
2.37116e-05
2.09176e-05
1.81475e-05
1.54163e-05
1.27359e-05
1.01219e-05
7.58071e-06
5.13058e-06
2.77631e-06
5.37259e-07
-1.57517e-06
-3.54159e-06
-5.34307e-06
-6.95598e-06
-8.3599e-06
-9.5285e-06
-1.04425e-05
-1.1069e-05
-1.13903e-05
-1.1383e-05
-1.101e-05
-1.02904e-05
-9.17224e-06
-7.67943e-06
-5.74533e-06
-3.76959e-06
-9.19162e-07
1.79733e-06
5.17574e-06
8.66397e-06
1.25111e-05
1.65719e-05
2.08193e-05
2.52098e-05
2.96769e-05
3.4174e-05
3.86532e-05
4.30779e-05
4.74077e-05
5.16085e-05
5.56522e-05
5.95064e-05
6.316e-05
6.65909e-05
6.9798e-05
7.27718e-05
7.55149e-05
7.80269e-05
8.03117e-05
8.23713e-05
8.42117e-05
8.58377e-05
8.72565e-05
8.84749e-05
8.95007e-05
9.03417e-05
9.10059e-05
9.1501e-05
9.18349e-05
9.20149e-05
9.20484e-05
9.19425e-05
9.17033e-05
9.13375e-05
9.08506e-05
9.02486e-05
8.9536e-05
8.87179e-05
8.77988e-05
8.67825e-05
8.56732e-05
8.44743e-05
8.31889e-05
8.18205e-05
8.03714e-05
7.88447e-05
7.72427e-05
7.55675e-05
7.38219e-05
7.20075e-05
7.01265e-05
6.8181e-05
6.61725e-05
6.4103e-05
6.19738e-05
5.97861e-05
5.75413e-05
5.52401e-05
5.28831e-05
5.04712e-05
4.80044e-05
4.54836e-05
4.29098e-05
4.0285e-05
3.7612e-05
3.48956e-05
3.21427e-05
2.93618e-05
2.65644e-05
2.37625e-05
2.09701e-05
1.82009e-05
1.54695e-05
1.27881e-05
1.01716e-05
7.62704e-06
5.17186e-06
2.8115e-06
5.64862e-07
-1.55629e-06
-3.53251e-06
-5.34453e-06
-6.96856e-06
-8.38371e-06
-9.56362e-06
-1.04885e-05
-1.11258e-05
-1.1457e-05
-1.14583e-05
-1.10935e-05
-1.03794e-05
-9.26765e-06
-7.78063e-06
-5.84925e-06
-3.87416e-06
-1.04244e-06
1.67967e-06
5.05368e-06
8.54456e-06
1.23943e-05
1.64598e-05
2.07164e-05
2.51171e-05
2.95962e-05
3.4106e-05
3.85985e-05
4.30364e-05
4.73796e-05
5.15935e-05
5.56492e-05
5.95147e-05
6.31776e-05
6.66168e-05
6.98307e-05
7.28104e-05
7.55584e-05
7.80746e-05
8.0363e-05
8.24257e-05
8.42687e-05
8.58969e-05
8.73175e-05
8.85373e-05
8.95643e-05
9.04062e-05
9.1071e-05
9.15665e-05
9.19007e-05
9.20808e-05
9.21144e-05
9.20084e-05
9.17693e-05
9.14034e-05
9.09163e-05
9.03142e-05
8.96015e-05
8.87833e-05
8.78641e-05
8.68478e-05
8.57384e-05
8.45394e-05
8.3254e-05
8.18854e-05
8.04362e-05
7.89093e-05
7.73071e-05
7.56317e-05
7.38857e-05
7.20709e-05
7.01893e-05
6.8243e-05
6.62336e-05
6.4163e-05
6.20325e-05
5.98434e-05
5.7597e-05
5.52939e-05
5.29351e-05
5.05214e-05
4.8053e-05
4.55308e-05
4.29559e-05
4.03306e-05
3.76577e-05
3.4942e-05
3.21904e-05
2.94113e-05
2.66157e-05
2.38156e-05
2.10246e-05
1.82561e-05
1.55244e-05
1.28416e-05
1.02225e-05
7.67426e-06
5.2137e-06
2.84684e-06
5.9212e-07
-1.53832e-06
-3.52497e-06
-5.34822e-06
-6.9841e-06
-8.41125e-06
-9.60324e-06
-1.05398e-05
-1.11886e-05
-1.15303e-05
-1.15409e-05
-1.11849e-05
-1.04766e-05
-9.37177e-06
-7.89078e-06
-5.96262e-06
-3.98782e-06
-1.1759e-06
1.55204e-06
4.9218e-06
8.41562e-06
1.22683e-05
1.63393e-05
2.06058e-05
2.50178e-05
2.951e-05
3.40336e-05
3.85405e-05
4.2993e-05
4.73507e-05
5.15789e-05
5.56477e-05
5.95253e-05
6.31986e-05
6.66468e-05
6.98682e-05
7.28543e-05
7.56076e-05
7.81284e-05
8.04207e-05
8.24868e-05
8.43327e-05
8.59631e-05
8.73856e-05
8.86069e-05
8.9635e-05
9.04777e-05
9.11431e-05
9.16389e-05
9.19733e-05
9.21535e-05
9.2187e-05
9.2081e-05
9.18416e-05
9.14755e-05
9.09882e-05
9.03858e-05
8.96729e-05
8.88545e-05
8.79351e-05
8.69185e-05
8.58089e-05
8.46098e-05
8.33242e-05
8.19554e-05
8.0506e-05
7.89789e-05
7.73763e-05
7.57005e-05
7.3954e-05
7.21386e-05
7.02563e-05
6.83092e-05
6.62987e-05
6.42269e-05
6.2095e-05
5.99043e-05
5.76561e-05
5.53512e-05
5.29905e-05
5.05749e-05
4.81046e-05
4.5581e-05
4.3005e-05
4.0379e-05
3.77061e-05
3.4991e-05
3.22406e-05
2.9463e-05
2.66692e-05
2.38708e-05
2.10809e-05
1.83129e-05
1.55807e-05
1.28965e-05
1.02744e-05
7.72221e-06
5.25591e-06
2.8821e-06
6.18797e-07
-1.52152e-06
-3.51926e-06
-5.35446e-06
-7.00297e-06
-8.44291e-06
-9.6478e-06
-1.05968e-05
-1.12579e-05
-1.1611e-05
-1.16315e-05
-1.12848e-05
-1.0583e-05
-9.48529e-06
-8.01061e-06
-6.08622e-06
-4.11131e-06
-1.32042e-06
1.41364e-06
4.7793e-06
8.27638e-06
1.21324e-05
1.62097e-05
2.04869e-05
2.49113e-05
2.94178e-05
3.39564e-05
3.8479e-05
4.29473e-05
4.7321e-05
5.15646e-05
5.56477e-05
5.95386e-05
6.32231e-05
6.66812e-05
6.99107e-05
7.29038e-05
7.5663e-05
7.81888e-05
8.04854e-05
8.25551e-05
8.4404e-05
8.60369e-05
8.74613e-05
8.86841e-05
8.97134e-05
9.05568e-05
9.12227e-05
9.17188e-05
9.20533e-05
9.22334e-05
9.22668e-05
9.21604e-05
9.19207e-05
9.15542e-05
9.10666e-05
9.04638e-05
8.97504e-05
8.89317e-05
8.80119e-05
8.6995e-05
8.58851e-05
8.46856e-05
8.33997e-05
8.20306e-05
8.05809e-05
7.90533e-05
7.74503e-05
7.5774e-05
7.40269e-05
7.22108e-05