/*--------------------------------*- C++ -*----------------------------------*\
  =========                 |
  \\      /  F ield         | OpenFOAM: The Open Source CFD Toolbox
   \\    /   O peration     | Website:  https://openfoam.org
    \\  /    A nd           | Version:  8
     \\/     M anipulation  |
\*---------------------------------------------------------------------------*/
FoamFile
{
    version     2.0;
    format      ascii;
    class       surfaceScalarField;
    location    "10000";
    object      phi;
}
// * * * * * * * * * * * * * * * * * * * * * * * * * * * * * * * * * * * * * //

dimensions      [0 3 -1 0 0 0 0];

internalField   nonuniform List<scalar> 
29254
(
-6.49111e-07
6.02018e-09
-6.58004e-07
8.89294e-09
-6.63582e-07
5.5778e-09
-6.68486e-07
4.90419e-09
-6.71588e-07
3.10159e-09
-6.72786e-07
1.19877e-09
-6.72685e-07
-1.01539e-10
-6.70985e-07
-1.70037e-09
-6.67933e-07
-3.05159e-09
-6.63667e-07
-4.26553e-09
-6.58365e-07
-5.30247e-09
-6.52048e-07
-6.31664e-09
-6.44987e-07
-7.06173e-09
-6.37393e-07
-7.59415e-09
-6.29347e-07
-8.04525e-09
-6.21095e-07
-8.25201e-09
-6.12642e-07
-8.45301e-09
-6.04178e-07
-8.46471e-09
-5.95743e-07
-8.4341e-09
-5.87517e-07
-8.22637e-09
-5.795e-07
-8.01702e-09
-5.71751e-07
-7.74916e-09
-5.64307e-07
-7.44427e-09
-5.57273e-07
-7.03408e-09
-5.50619e-07
-6.65377e-09
-5.4432e-07
-6.29897e-09
-5.3841e-07
-5.91e-09
-5.32852e-07
-5.55734e-09
-5.27689e-07
-5.16326e-09
-5.22921e-07
-4.76786e-09
-5.18538e-07
-4.38384e-09
-5.14528e-07
-4.0098e-09
-5.10875e-07
-3.65274e-09
-5.07566e-07
-3.30869e-09
-5.04586e-07
-2.97998e-09
-5.01874e-07
-2.71268e-09
-4.9945e-07
-2.42401e-09
-4.97297e-07
-2.1521e-09
-4.95403e-07
-1.89435e-09
-4.93689e-07
-1.71371e-09
-4.92183e-07
-1.50621e-09
-4.90913e-07
-1.27061e-09
-4.89836e-07
-1.07647e-09
-4.88989e-07
-8.47536e-10
-4.88305e-07
-6.83804e-10
-4.87764e-07
-5.4118e-10
-4.87355e-07
-4.08743e-10
-4.87061e-07
-2.94237e-10
-4.86871e-07
-1.89828e-10
-4.86768e-07
-1.0313e-10
-4.86735e-07
-3.24136e-11
-4.86781e-07
4.579e-11
-4.86867e-07
8.5602e-11
-4.86973e-07
1.06198e-10
-4.8708e-07
1.07563e-10
-4.87162e-07
8.19912e-11
-4.87191e-07
2.83465e-11
-4.87113e-07
-7.75264e-11
-4.86871e-07
-2.42267e-10
-4.86456e-07
-4.14681e-10
-4.85743e-07
-7.1305e-10
-4.84669e-07
-1.07389e-09
-4.83108e-07
-1.5616e-09
-4.80913e-07
-2.19425e-09
-4.78061e-07
-2.85236e-09
-4.74502e-07
-3.55955e-09
-4.70227e-07
-4.27408e-09
-4.6525e-07
-4.97722e-09
-4.5972e-07
-5.53066e-09
-4.53835e-07
-5.88434e-09
-4.47854e-07
-5.98146e-09
-4.42087e-07
-5.76712e-09
-4.36843e-07
-5.24353e-09
-4.32417e-07
-4.42629e-09
-4.2905e-07
-3.3664e-09
-4.26914e-07
-2.1361e-09
-4.26103e-07
-8.11774e-10
-4.26673e-07
5.70327e-10
-4.28594e-07
1.92091e-09
-4.319e-07
3.30604e-09
-4.36463e-07
4.56274e-09
-4.42311e-07
5.84849e-09
-4.49334e-07
7.02256e-09
-4.57478e-07
8.14423e-09
-4.66684e-07
9.20631e-09
-4.76884e-07
1.01994e-08
-4.87969e-07
1.10856e-08
-4.99853e-07
1.18836e-08
-5.1242e-07
1.25673e-08
-5.25581e-07
1.31613e-08
-5.39114e-07
1.35321e-08
-5.53009e-07
1.38959e-08
-5.67058e-07
1.4049e-08
-5.80843e-07
1.37848e-08
-5.946e-07
1.37572e-08
-6.07511e-07
1.29112e-08
-6.19384e-07
1.18726e-08
-6.30355e-07
1.0971e-08
1.27396e-08
-2.00993e-06
2.31202e-08
-2.03468e-06
3.36396e-08
-2.0556e-06
2.65031e-08
-2.07673e-06
2.6033e-08
-2.09514e-06
2.15089e-08
-2.10903e-06
1.50903e-08
-2.1199e-06
1.07687e-08
-2.12673e-06
5.12998e-09
-2.12987e-06
8.85962e-11
-2.12961e-06
-4.52677e-09
-2.12631e-06
-8.60167e-09
-2.12005e-06
-1.25758e-08
-2.1114e-06
-1.57122e-08
-2.10082e-06
-1.8173e-08
-2.08855e-06
-2.03193e-08
-2.07518e-06
-2.16172e-08
-2.06076e-06
-2.28768e-08
-2.04579e-06
-2.34343e-08
-2.03043e-06
-2.37936e-08
-2.01512e-06
-2.35358e-08
-1.99994e-06
-2.3195e-08
-1.98506e-06
-2.26328e-08
-1.9706e-06
-2.19035e-08
-1.95681e-06
-2.08211e-08
-1.94369e-06
-1.97746e-08
-1.93127e-06
-1.87261e-08
-1.9196e-06
-1.75751e-08
-1.90867e-06
-1.64924e-08
-1.89855e-06
-1.52758e-08
-1.88929e-06
-1.40288e-08
-1.88087e-06
-1.28039e-08
-1.87329e-06
-1.1597e-08
-1.8665e-06
-1.04333e-08
-1.86051e-06
-9.30639e-09
-1.85526e-06
-8.22963e-09
-1.85063e-06
-7.33869e-09
-1.84667e-06
-6.38677e-09
-1.84334e-06
-5.48278e-09
-1.8406e-06
-4.63369e-09
-1.8383e-06
-4.01112e-09
-1.83649e-06
-3.31499e-09
-1.83518e-06
-2.57997e-09
-1.83431e-06
-1.95259e-09
-1.83392e-06
-1.23486e-09
-1.83388e-06
-7.19916e-10
-1.83413e-06
-2.91852e-10
-1.83464e-06
9.5867e-11
-1.83534e-06
4.06526e-10
-1.8362e-06
6.72682e-10
-1.83717e-06
8.62044e-10
-1.83818e-06
9.79162e-10
-1.83923e-06
1.09888e-09
-1.84021e-06
1.06809e-09
-1.84105e-06
9.41799e-10
-1.84166e-06
7.21758e-10
-1.84195e-06
3.68974e-10
-1.8418e-06
-1.22448e-10
-1.84102e-06
-8.56907e-10
-1.8394e-06
-1.86489e-09
-1.8368e-06
-3.00971e-09
-1.83286e-06
-4.65714e-09
-1.82726e-06
-6.66707e-09
-1.81966e-06
-9.16922e-09
-1.80959e-06
-1.2265e-08
-1.79686e-06
-1.55787e-08
-1.7813e-06
-1.91223e-08
-1.76285e-06
-2.27194e-08
-1.7416e-06
-2.62253e-08
-1.71802e-06
-2.91178e-08
-1.69278e-06
-3.11225e-08
-1.66678e-06
-3.19825e-08
-1.64109e-06
-3.14563e-08
-1.61679e-06
-2.95399e-08
-1.59492e-06
-2.63012e-08
-1.57632e-06
-2.19652e-08
-1.56159e-06
-1.68611e-08
-1.55106e-06
-1.13408e-08
-1.5449e-06
-5.59474e-09
-1.54298e-06
2.59211e-12
-1.54532e-06
5.64156e-09
-1.55147e-06
1.07172e-08
-1.5614e-06
1.57735e-08
-1.5747e-06
2.03264e-08
-1.59113e-06
2.45724e-08
-1.6104e-06
2.84837e-08
-1.63222e-06
3.20177e-08
-1.65619e-06
3.50533e-08
-1.68201e-06
3.77033e-08
-1.70929e-06
3.98436e-08
-1.73772e-06
4.15903e-08
-1.76665e-06
4.24675e-08
-1.796e-06
4.32471e-08
-1.8254e-06
4.34514e-08
-1.85404e-06
4.24182e-08
-1.88261e-06
4.23311e-08
-1.90946e-06
3.97573e-08
-1.93538e-06
3.77907e-08
-1.96171e-06
3.73095e-08
4.38566e-08
-3.48543e-06
4.81981e-08
-3.52574e-06
7.39519e-08
-3.56613e-06
6.68951e-08
-3.6109e-06
7.08052e-08
-3.65453e-06
6.51378e-08
-3.69248e-06
5.30371e-08
-3.72684e-06
4.51273e-08
-3.75566e-06
3.39516e-08
-3.77908e-06
2.3505e-08
-3.79736e-06
1.3761e-08
-3.81095e-06
4.98717e-09
-3.81985e-06
-3.67273e-09
-3.8248e-06
-1.07654e-08
-3.82639e-06
-1.65876e-08
-3.82489e-06
-2.18169e-08
-3.82119e-06
-2.53143e-08
-3.81526e-06
-2.88043e-08
-3.80791e-06
-3.07933e-08
-3.79935e-06
-3.23534e-08
-3.79023e-06
-3.26534e-08
-3.78071e-06
-3.27155e-08
-3.77103e-06
-3.23151e-08
-3.76138e-06
-3.15475e-08
-3.75213e-06
-3.00718e-08
-3.74331e-06
-2.85996e-08
-3.73502e-06
-2.70113e-08
-3.72737e-06
-2.5223e-08
-3.72036e-06
-2.35029e-08
-3.71413e-06
-2.15121e-08
-3.70873e-06
-1.94237e-08
-3.70419e-06
-1.73493e-08
-3.7005e-06
-1.52783e-08
-3.69767e-06
-1.32704e-08
-3.69566e-06
-1.13151e-08
-3.69444e-06
-9.44949e-09
-3.69385e-06
-7.92263e-09
-3.69397e-06
-6.27076e-09
-3.69475e-06
-4.70192e-09
-3.69615e-06
-3.23636e-09
-3.69798e-06
-2.18157e-09
-3.70031e-06
-9.85282e-10
-3.7031e-06
2.1639e-10
-3.7063e-06
1.24325e-09
-3.70996e-06
2.42445e-09
-3.7139e-06
3.22433e-09
-3.71803e-06
3.83236e-09
-3.72228e-06
4.34983e-09
-3.72657e-06
4.69041e-09
-3.73082e-06
4.92274e-09
-3.73493e-06
4.97257e-09
-3.7388e-06
4.85009e-09
-3.74238e-06
4.68572e-09
-3.7455e-06
4.18245e-09
-3.74799e-06
3.43112e-09
-3.7497e-06
2.43253e-09
-3.75042e-06
1.08834e-09
-3.74992e-06
-6.17707e-10
-3.74785e-06
-2.92503e-09
-3.74381e-06
-5.91341e-09
-3.73745e-06
-9.36378e-09
-3.72813e-06
-1.39744e-08
-3.71524e-06
-1.95624e-08
-3.69813e-06
-2.62795e-08
-3.676e-06
-3.43909e-08
-3.6484e-06
-4.31807e-08
-3.61492e-06
-5.2601e-08
-3.57541e-06
-6.22362e-08
-3.52995e-06
-7.16821e-08
-3.47928e-06
-7.97838e-08
-3.42459e-06
-8.5813e-08
-3.36747e-06
-8.91024e-08
-3.3099e-06
-8.90298e-08
-3.25392e-06
-8.55153e-08
-3.20154e-06
-7.86836e-08
-3.15445e-06
-6.9053e-08
-3.11389e-06
-5.74285e-08
-3.08052e-06
-4.47089e-08
-3.05471e-06
-3.14076e-08
-3.03624e-06
-1.84649e-08
-3.02506e-06
-5.53302e-09
-3.02035e-06
6.00733e-09
-3.0219e-06
1.73194e-08
-3.02895e-06
2.73795e-08
-3.04097e-06
3.65916e-08
-3.05738e-06
4.48884e-08
-3.07754e-06
5.21817e-08
-3.10072e-06
5.82321e-08
-3.12639e-06
6.33688e-08
-3.15383e-06
6.72929e-08
-3.18256e-06
7.03144e-08
-3.21152e-06
7.14329e-08
-3.24065e-06
7.23691e-08
-3.2697e-06
7.25109e-08
-3.29776e-06
7.04773e-08
-3.32639e-06
7.09554e-08
-3.35373e-06
6.70987e-08
-3.38284e-06
6.69013e-08
-3.41643e-06
7.08998e-08
8.77741e-08
-5.06461e-06
7.69117e-08
-5.11837e-06
1.27717e-07
-5.17842e-06
1.26944e-07
-5.2494e-06
1.41779e-07
-5.32241e-06
1.38151e-07
-5.38981e-06
1.20434e-07
-5.45403e-06
1.09353e-07
-5.51206e-06
9.19814e-08
-5.56368e-06
7.51229e-08
-5.60905e-06
5.91292e-08
-5.6486e-06
4.45375e-08
-5.68229e-06
3.00159e-08
-5.71078e-06
1.7725e-08
-5.73469e-06
7.32333e-09
-5.75426e-06
-2.24815e-09
-5.77053e-06
-9.04358e-09
-5.78335e-06
-1.59847e-08
-5.79374e-06
-2.03977e-08
-5.80194e-06
-2.41618e-08
-5.80865e-06
-2.59365e-08
-5.81412e-06
-2.72492e-08
-5.81861e-06
-2.78233e-08
-5.82234e-06
-2.78191e-08
-5.82564e-06
-2.67736e-08
-5.82866e-06
-2.55783e-08
-5.83161e-06
-2.40625e-08
-5.83456e-06
-2.22664e-08
-5.83764e-06
-2.04283e-08
-5.84094e-06
-1.82073e-08
-5.84458e-06
-1.57892e-08
-5.84858e-06
-1.3346e-08
-5.85301e-06
-1.0852e-08
-5.85786e-06
-8.41504e-09
-5.86316e-06
-6.02007e-09
-5.86887e-06
-3.7329e-09
-5.87492e-06
-1.87562e-09
-5.88135e-06
1.60091e-10
-5.88816e-06
2.1049e-09
-5.89532e-06
3.92651e-09
-5.90276e-06
5.25648e-09
-5.91046e-06
6.71895e-09
-5.91837e-06
8.11788e-09
-5.92645e-06
9.32925e-09
-5.93473e-06
1.07071e-08
-5.9431e-06
1.15918e-08
-5.95145e-06
1.21756e-08
-5.95972e-06
1.26277e-08
-5.96781e-06
1.27771e-08
-5.97564e-06
1.27518e-08
-5.98308e-06
1.24137e-08
-5.99e-06
1.17749e-08
-5.99633e-06
1.10127e-08
-6.00183e-06
9.68445e-09
-6.00631e-06
7.90819e-09
-6.00955e-06
5.66902e-09
-6.01124e-06
2.77687e-09
-6.01108e-06
-7.77841e-10
-6.00863e-06
-5.36763e-09
-6.00342e-06
-1.113e-08
-5.99491e-06
-1.78711e-08
-5.98238e-06
-2.65066e-08
-5.965e-06
-3.69368e-08
-5.94201e-06
-4.92669e-08
-5.9125e-06
-6.39014e-08
-5.87569e-06
-7.99979e-08
-5.83087e-06
-9.74157e-08
-5.77758e-06
-1.15528e-07
-5.7156e-06
-1.33658e-07
-5.64532e-06
-1.50066e-07
-5.56771e-06
-1.6343e-07
-5.4843e-06
-1.72504e-07
-5.39735e-06
-1.75983e-07
-5.30946e-06
-1.7341e-07
-5.22348e-06
-1.64654e-07
-5.14219e-06
-1.50348e-07
-5.06783e-06
-1.31786e-07
-5.00193e-06
-1.10611e-07
-4.9455e-06
-8.78367e-08
-4.89861e-06
-6.53608e-08
-4.86142e-06
-4.27196e-08
-4.83287e-06
-2.25452e-08
-4.81271e-06
-2.83805e-09
-4.79991e-06
1.45815e-08
-4.79371e-06
3.0395e-08
-4.79323e-06
4.44007e-08
-4.7975e-06
5.64575e-08
-4.80544e-06
6.61719e-08
-4.81635e-06
7.42792e-08
-4.8292e-06
8.01404e-08
-4.84336e-06
8.44698e-08
-4.85745e-06
8.55264e-08
-4.87142e-06
8.63416e-08
-4.88553e-06
8.66175e-08
-4.89887e-06
8.38194e-08
-4.91429e-06
8.63786e-08
-4.93018e-06
8.29875e-08
-4.95241e-06
8.91248e-08
-4.98484e-06
1.03338e-07
1.38826e-07
-6.71148e-06
1.02983e-07
-6.77373e-06
1.8997e-07
-6.84956e-06
2.02769e-07
-6.94325e-06
2.3547e-07
-7.04274e-06
2.37642e-07
-7.13732e-06
2.15014e-07
-7.22951e-06
2.01545e-07
-7.31525e-06
1.77716e-07
-7.39383e-06
1.53709e-07
-7.46527e-06
1.30572e-07
-7.52996e-06
1.0922e-07
-7.58765e-06
8.77043e-08
-7.63898e-06
6.90568e-08
-7.68456e-06
5.29057e-08
-7.7245e-06
3.76913e-08
-7.76e-06
2.64552e-08
-7.79071e-06
1.47249e-08
-7.81784e-06
6.73151e-09
-7.84157e-06
-4.26729e-10
-7.86275e-06
-4.76084e-09
-7.88162e-06
-8.37577e-09
-7.8985e-06
-1.09491e-08
-7.9136e-06
-1.27178e-08
-7.92731e-06
-1.30643e-08
-7.93983e-06
-1.3055e-08
-7.95144e-06
-1.24512e-08
-7.96226e-06
-1.14452e-08
-7.97247e-06
-1.02197e-08
-7.98223e-06
-8.44407e-09
-7.9917e-06
-6.32549e-09
-8.00095e-06
-4.0923e-09
-8.0101e-06
-1.7013e-09
-8.0192e-06
6.87588e-10
-8.02833e-06
3.10297e-09
-8.0375e-06
5.44199e-09
-8.04669e-06
7.30731e-09
-8.05598e-06
9.45728e-09
-8.06543e-06
1.15495e-08
-8.07504e-06
1.3542e-08
-8.08479e-06
1.50032e-08
-8.09469e-06
1.66243e-08
-8.10469e-06
1.81149e-08
-8.1148e-06
1.94403e-08
-8.12505e-06
2.09564e-08
-8.13535e-06
2.18902e-08
-8.14561e-06
2.24342e-08
-8.1558e-06
2.28213e-08
-8.16581e-06
2.27805e-08
-8.17556e-06
2.25093e-08
-8.18494e-06
2.17905e-08
-8.1938e-06
2.06377e-08
-8.20206e-06
1.9269e-08
-8.20947e-06
1.70991e-08
-8.21582e-06
1.42589e-08
-8.22088e-06
1.07289e-08
-8.22432e-06
6.21094e-09
-8.22582e-06
7.22773e-10
-8.22498e-06
-6.20345e-09
-8.22138e-06
-1.47329e-08
-8.21454e-06
-2.47089e-08
-8.2038e-06
-3.72474e-08
-8.18843e-06
-5.23051e-08
-8.16779e-06
-6.99118e-08
-8.14109e-06
-9.06007e-08
-8.10764e-06
-1.13444e-07
-8.06679e-06
-1.38265e-07
-8.01801e-06
-1.64313e-07
-7.96087e-06
-1.90792e-07
-7.89537e-06
-2.15572e-07
-7.82183e-06
-2.36967e-07
-7.74099e-06
-2.53348e-07
-7.65414e-06
-2.62829e-07
-7.56298e-06
-2.64569e-07
-7.46967e-06
-2.57963e-07
-7.37661e-06
-2.43407e-07
-7.28613e-06
-2.22273e-07
-7.20015e-06
-1.96586e-07
-7.12046e-06
-1.67529e-07
-7.04787e-06
-1.37946e-07
-6.98349e-06
-1.07102e-07
-6.92672e-06
-7.9322e-08
-6.87791e-06
-5.16448e-08
-6.83632e-06
-2.70086e-08
-6.80143e-06
-4.49106e-09
-6.77244e-06
1.54106e-08
-6.7484e-06
3.24114e-08
-6.72806e-06
4.58304e-08
-6.71071e-06
5.69384e-08
-6.69519e-06
6.46204e-08
-6.68087e-06
7.01418e-08
-6.66617e-06
7.08299e-08
-6.6513e-06
7.14736e-08
-6.6371e-06
7.24138e-08
-6.62288e-06
6.96024e-08
-6.61303e-06
7.65302e-08
-6.60644e-06
7.63906e-08
-6.61177e-06
9.44604e-08
-6.63427e-06
1.25834e-07
1.89965e-07
-8.34938e-06
1.18485e-07
-8.41257e-06
2.53157e-07
-8.49628e-06
2.86481e-07
-8.60327e-06
3.42458e-07
-8.71938e-06
3.53755e-07
-8.83151e-06
3.27143e-07
-8.94199e-06
3.12024e-07
-9.04585e-06
2.81577e-07
-9.14199e-06
2.49846e-07
-9.23032e-06
2.18906e-07
-9.31117e-06
1.90068e-07
-9.38425e-06
1.60786e-07
-9.45012e-06
1.3493e-07
-9.5094e-06
1.12187e-07
-9.56212e-06
9.04091e-08
-9.60955e-06
7.38856e-08
-9.65124e-06
5.64158e-08
-9.68855e-06
4.40417e-08
-9.72166e-06
3.26835e-08
-9.75143e-06
2.50077e-08
-9.7782e-06
1.83959e-08
-9.8023e-06
1.31506e-08
-9.82397e-06
8.95234e-09
-9.84361e-06
6.57266e-09
-9.86148e-06
4.81848e-09
-9.87792e-06
3.98991e-09
-9.89309e-06
3.72497e-09
-9.90729e-06
3.97088e-09
-9.92064e-06
4.90964e-09
-9.93334e-06
6.37603e-09
-9.94552e-06
8.08435e-09
-9.95732e-06
1.01003e-08
-9.96884e-06
1.22125e-08
-9.98019e-06
1.44541e-08
-9.99144e-06
1.66849e-08
-1.00026e-05
1.84811e-08
-1.00138e-05
2.06682e-08
-1.00251e-05
2.28473e-08
-1.00366e-05
2.49829e-08
-1.00482e-05
2.66162e-08
-1.006e-05
2.84229e-08
-1.00719e-05
3.0042e-08
-1.0084e-05
3.15288e-08
-1.00962e-05
3.31848e-08
-1.01086e-05
3.4242e-08
-1.0121e-05
3.48452e-08
-1.01334e-05
3.52738e-08
-1.01458e-05
3.5154e-08
-1.0158e-05
3.47535e-08
-1.017e-05
3.3772e-08
-1.01816e-05
3.22207e-08
-1.01927e-05
3.0349e-08
-1.0203e-05
2.74486e-08
-1.02125e-05
2.36668e-08
-1.02207e-05
1.89751e-08
-1.02275e-05
1.29705e-08
-1.02325e-05
5.73448e-09
-1.02354e-05
-3.31371e-09
-1.02358e-05
-1.43151e-08
-1.02333e-05
-2.71908e-08
-1.02274e-05
-4.30991e-08
-1.02177e-05
-6.20881e-08
-1.02035e-05
-8.408e-08
-1.01844e-05
-1.09672e-07
-1.01599e-05
-1.37928e-07
-1.01296e-05
-1.68613e-07
-1.0093e-05
-2.0088e-07
-1.005e-05
-2.33854e-07
-1.00003e-05
-2.65231e-07
-9.94417e-06
-2.931e-07
-9.88181e-06
-3.15706e-07
-9.81381e-06
-3.30825e-07
-9.74087e-06
-3.37514e-07
-9.66397e-06
-3.34862e-07
-9.58432e-06
-3.23053e-07
-9.50318e-06
-3.03422e-07
-9.42164e-06
-2.7812e-07
-9.34111e-06
-2.4806e-07
-9.26229e-06
-2.16764e-07
-9.18664e-06
-1.8276e-07
-9.11384e-06
-1.52113e-07
-9.04494e-06
-1.20545e-07
-8.9797e-06
-9.22569e-08
-8.91815e-06
-6.60384e-08
-8.85997e-06
-4.27681e-08
-8.80463e-06
-2.29307e-08
-8.75117e-06
-7.63028e-09
-8.69928e-06
5.04887e-09
-8.64799e-06
1.3335e-08
-8.59697e-06
1.91214e-08
-8.54476e-06
1.86145e-08
-8.49198e-06
1.86929e-08
-8.44026e-06
2.06953e-08
-8.38936e-06
1.87055e-08
-8.34525e-06
3.24149e-08
-8.3074e-06
3.85454e-08
-8.28708e-06
7.41412e-08
-8.29109e-06
1.29839e-07
2.32756e-07
-9.89947e-06
1.17677e-07
-9.95709e-06
3.10772e-07
-1.00412e-05
3.70567e-07
-1.01524e-05
4.53706e-07
-1.02755e-05
4.76855e-07
-1.03959e-05
4.47489e-07
-1.05155e-05
4.31618e-07
-1.06286e-05
3.94751e-07
-1.0734e-05
3.55223e-07
-1.08315e-05
3.16368e-07
-1.09213e-05
2.79881e-07
-1.10031e-05
2.42647e-07
-1.10776e-05
2.09351e-07
-1.11451e-05
1.79757e-07
-1.12058e-05
1.51101e-07
-1.1261e-05
1.29029e-07
-1.131e-05
1.05463e-07
-1.13544e-05
8.84313e-08
-1.13943e-05
7.25835e-08
-1.14306e-05
6.12815e-08
-1.14636e-05
5.13912e-08
-1.14936e-05
4.32022e-08
-1.1521e-05
3.62837e-08
-1.1546e-05
3.158e-08
-1.15689e-05
2.77921e-08
-1.15902e-05
2.52832e-08
-1.161e-05
2.35055e-08
-1.16286e-05
2.25731e-08
-1.16462e-05
2.24726e-08
-1.16629e-05
2.30953e-08
-1.16789e-05
2.41137e-08
-1.16944e-05
2.56159e-08
-1.17096e-05
2.73276e-08
-1.17244e-05
2.9296e-08
-1.17391e-05
3.13415e-08
-1.17536e-05
3.3033e-08
-1.17682e-05
3.52246e-08
-1.17828e-05
3.74823e-08
-1.17976e-05
3.97732e-08
-1.18126e-05
4.16226e-08
-1.18279e-05
4.36741e-08
-1.18433e-05
4.54791e-08
-1.1859e-05
4.72056e-08
-1.18748e-05
4.90639e-08
-1.18909e-05
5.03453e-08
-1.19072e-05
5.11182e-08
-1.19237e-05
5.17223e-08
-1.19402e-05
5.16518e-08
-1.19567e-05
5.1263e-08
-1.19731e-05
5.01661e-08
-1.19892e-05
4.83685e-08
-1.2005e-05
4.61414e-08
-1.20202e-05
4.26766e-08
-1.20347e-05
3.81319e-08
-1.20482e-05
3.24866e-08
-1.20605e-05
2.52319e-08
-1.20713e-05
1.65266e-08
-1.20803e-05
5.67124e-09
-1.20871e-05
-7.43272e-09
-1.20916e-05
-2.27656e-08
-1.20932e-05
-4.14627e-08
-1.20916e-05
-6.36692e-08
-1.20865e-05
-8.91798e-08
-1.20775e-05
-1.18646e-07
-1.20643e-05
-1.51152e-07
-1.20465e-05
-1.86421e-07
-1.20239e-05
-2.23529e-07
-1.19961e-05
-2.61585e-07
-1.19631e-05
-2.98225e-07
-1.19248e-05
-3.31415e-07
-1.18811e-05
-3.59408e-07
-1.18322e-05
-3.79787e-07
-1.1778e-05
-3.91638e-07
-1.17191e-05
-3.93845e-07
-1.16557e-05
-3.86434e-07
-1.15884e-05
-3.7071e-07
-1.15176e-05
-3.48929e-07
-1.1444e-05
-3.21599e-07
-1.1368e-05
-2.9282e-07
-1.12906e-05
-2.60132e-07
-1.12114e-05
-2.31322e-07
-1.11315e-05
-2.00474e-07
-1.10507e-05
-1.73022e-07
-1.09694e-05
-1.47292e-07
-1.08877e-05
-1.24542e-07
-1.08052e-05
-1.05437e-07
-1.07213e-05
-9.14535e-08
-1.06364e-05
-7.99325e-08
-1.05496e-05
-7.33875e-08
-1.04613e-05
-6.92148e-08
-1.03702e-05
-7.24434e-08
-1.02777e-05
-7.38522e-08
-1.01861e-05
-7.08711e-08
-1.0096e-05
-7.14766e-08
-1.00145e-05
-4.90404e-08
-9.94194e-06
-3.40141e-08
-9.89165e-06
2.38482e-08
-9.87206e-06
1.10256e-07
2.60973e-07
-1.1334e-05
9.86931e-08
-1.13837e-05
3.60514e-07
-1.1465e-05
4.51886e-07
-1.15748e-05
5.63442e-07
-1.16987e-05
6.00766e-07
-1.18217e-05
5.70468e-07
-1.1945e-05
5.54935e-07
-1.20626e-05
5.12393e-07
-1.21729e-05
4.6548e-07
-1.22756e-05
4.19149e-07
-1.23711e-05
3.75318e-07
-1.24589e-05
3.3048e-07
-1.25395e-05
2.89969e-07
-1.26135e-05
2.53746e-07
-1.26808e-05
2.18341e-07
-1.27426e-05
1.90814e-07
-1.27983e-05
1.61206e-07
-1.28494e-05
1.39567e-07
-1.28961e-05
1.1924e-07
-1.29391e-05
1.04272e-07
-1.29788e-05
9.10765e-08
-1.30154e-05
7.98854e-08
-1.30493e-05
7.01737e-08
-1.30808e-05
6.30414e-08
-1.31101e-05
5.71063e-08
-1.31376e-05
5.27693e-08
-1.31634e-05
4.9352e-08
-1.3188e-05
4.71573e-08
-1.32115e-05
4.58992e-08
-1.32339e-05
4.55618e-08
-1.32556e-05
4.57767e-08
-1.32766e-05
4.66699e-08
-1.32972e-05
4.78943e-08
-1.33174e-05
4.9517e-08
-1.33374e-05
5.13223e-08
-1.33573e-05
5.28995e-08
-1.33771e-05
5.50767e-08
-1.33971e-05
5.74088e-08
-1.34171e-05
5.98646e-08
-1.34375e-05
6.19723e-08
-1.34581e-05
6.43133e-08
-1.3479e-05
6.63939e-08
-1.35003e-05
6.84352e-08
-1.35218e-05
7.05393e-08
-1.35436e-05
7.2145e-08
-1.35656e-05
7.32073e-08
-1.3588e-05
7.41115e-08
-1.36106e-05
7.42303e-08
-1.36333e-05
7.4005e-08
-1.36561e-05
7.29481e-08
-1.36788e-05
7.10698e-08
-1.37014e-05
6.86629e-08
-1.37235e-05
6.48259e-08
-1.37451e-05
5.97387e-08
-1.3766e-05
5.33873e-08
-1.37859e-05
4.51616e-08
-1.38047e-05
3.53051e-08
-1.3822e-05
2.3e-08
-1.38377e-05
8.18043e-09
-1.38512e-05
-9.21039e-09
-1.38625e-05
-3.01754e-08
-1.38712e-05
-5.49488e-08
-1.38771e-05
-8.32826e-08
-1.38799e-05
-1.15851e-07
-1.38793e-05
-1.51791e-07
-1.38749e-05
-1.90814e-07
-1.38664e-05
-2.31965e-07
-1.38537e-05
-2.74361e-07
-1.38362e-05
-3.15706e-07
-1.38137e-05
-3.53898e-07
-1.37858e-05
-3.87283e-07
-1.37523e-05
-4.13309e-07
-1.37128e-05
-4.31166e-07
-1.36671e-05
-4.39537e-07
-1.36152e-05
-4.38307e-07
-1.35572e-05
-4.28727e-07
-1.3493e-05
-4.13133e-07
-1.3423e-05
-3.91567e-07
-1.33472e-05
-3.68661e-07
-1.32665e-05
-3.40853e-07
-1.31801e-05
-3.17653e-07
-1.30893e-05
-2.91347e-07
-1.29937e-05
-2.68556e-07
-1.2894e-05
-2.47046e-07
-1.27901e-05
-2.28398e-07
-1.26822e-05
-2.13399e-07
-1.25698e-05
-2.03838e-07
-1.24535e-05
-1.962e-07
-1.23331e-05
-1.93801e-07
-1.22091e-05
-1.93246e-07
-1.20807e-05
-2.00775e-07
-1.19499e-05
-2.04668e-07
-1.18198e-05
-2.0094e-07
-1.16916e-05
-1.99704e-07
-1.15737e-05
-1.66992e-07
-1.14669e-05
-1.40764e-07
-1.13863e-05
-5.67755e-08
-1.13418e-05
6.57722e-08
2.72113e-07
-1.26625e-05
6.22195e-08
-1.27026e-05
4.00551e-07
-1.27788e-05
5.28129e-07
-1.28845e-05
6.6915e-07
-1.30065e-05
7.22743e-07
-1.31297e-05
6.93648e-07
-1.32545e-05
6.79757e-07
-1.33746e-05
6.32531e-07
-1.34882e-05
5.79052e-07
-1.35951e-05
5.26046e-07
-1.36953e-05
4.75533e-07
-1.37886e-05
4.23785e-07
-1.38752e-05
3.76598e-07
-1.39557e-05
3.34221e-07
-1.40298e-05
2.92468e-07
-1.40989e-05
2.59825e-07
-1.41621e-05
2.24457e-07
-1.4221e-05
1.98419e-07
-1.42755e-05
1.73792e-07
-1.43265e-05
1.55282e-07
-1.43743e-05
1.38871e-07
-1.44191e-05
1.24719e-07
-1.44612e-05
1.12216e-07
-1.45008e-05
1.02625e-07
-1.45382e-05
9.44887e-08
-1.45736e-05
8.82481e-08
-1.46074e-05
8.30995e-08
-1.46398e-05
7.95561e-08
-1.46709e-05
7.70365e-08
-1.4701e-05
7.56358e-08
-1.47302e-05
7.49444e-08
-1.47586e-05
7.51343e-08
-1.47865e-05
7.57827e-08
-1.4814e-05
7.69896e-08
-1.48411e-05
7.84898e-08
-1.48682e-05
7.99077e-08
-1.48951e-05
8.20452e-08
-1.49222e-05
8.44339e-08
-1.49494e-05
8.70632e-08
-1.49768e-05
8.94501e-08
-1.50046e-05
9.21252e-08
-1.50328e-05
9.4531e-08
-1.50613e-05
9.69532e-08
-1.50901e-05
9.93793e-08
-1.51194e-05
1.01407e-07
-1.51491e-05
1.02874e-07
-1.51792e-05
1.04206e-07
-1.52096e-05
1.0465e-07
-1.52403e-05
1.04742e-07
-1.52713e-05
1.03893e-07
-1.53023e-05
1.02114e-07
-1.53334e-05
9.97177e-08
-1.53643e-05
9.57263e-08
-1.53949e-05
9.03329e-08
-1.5425e-05
8.35333e-08
-1.54545e-05
7.46237e-08
-1.54831e-05
6.39276e-08
-1.55106e-05
5.05111e-08
-1.55368e-05
3.4344e-08
-1.55612e-05
1.52682e-08
-1.55838e-05
-7.56541e-09
-1.56043e-05
-3.44745e-08
-1.56224e-05
-6.51759e-08
-1.56379e-05
-1.00395e-07
-1.56503e-05
-1.39363e-07
-1.56593e-05
-1.81816e-07
-1.56645e-05
-2.26814e-07
-1.56653e-05
-2.73527e-07
-1.56612e-05
-3.1978e-07
-1.56517e-05
-3.63451e-07
-1.56359e-05
-4.03004e-07
-1.56135e-05
-4.35773e-07
-1.55836e-05
-4.61066e-07
-1.55458e-05
-4.77343e-07
-1.54998e-05
-4.84326e-07
-1.54453e-05
-4.83191e-07
-1.53821e-05
-4.76346e-07
-1.53103e-05
-4.63322e-07
-1.52297e-05
-4.49256e-07
-1.51411e-05
-4.29444e-07
-1.50437e-05
-4.15068e-07
-1.49385e-05
-3.96573e-07
-1.48254e-05
-3.81686e-07
-1.47049e-05
-3.67564e-07
-1.45772e-05
-3.56038e-07
-1.44426e-05
-3.47978e-07
-1.43011e-05
-3.45418e-07
-1.41533e-05
-3.43936e-07
-1.39995e-05
-3.47625e-07
-1.38405e-05
-3.52272e-07
-1.3676e-05
-3.65273e-07
-1.35083e-05
-3.72344e-07
-1.33413e-05
-3.67929e-07
-1.31768e-05
-3.64221e-07
-1.30239e-05
-3.19835e-07
-1.28846e-05
-2.80149e-07
-1.27746e-05
-1.66715e-07
-1.27056e-05
-3.27822e-09
2.65531e-07
-1.39032e-05
1.0199e-08
-1.39344e-05
4.3172e-07
-1.40062e-05
5.99928e-07
-1.41063e-05
7.69336e-07
-1.42249e-05
8.41282e-07
-1.43474e-05
8.16167e-07
-1.44731e-05
8.05407e-07
-1.45956e-05
7.55046e-07
-1.47126e-05
6.96128e-07
-1.48242e-05
6.37567e-07
-1.49299e-05
5.81257e-07
-1.50296e-05
5.23464e-07
-1.51233e-05
4.70301e-07
-1.52114e-05
4.22389e-07
-1.52938e-05
3.74818e-07
-1.53714e-05
3.37477e-07
-1.54437e-05
2.96727e-07
-1.55118e-05
2.66535e-07
-1.55759e-05
2.37832e-07
-1.56365e-05
2.15919e-07
-1.5694e-05
1.96394e-07
-1.57486e-05
1.7934e-07
-1.58005e-05
1.64066e-07
-1.58499e-05
1.52024e-07
-1.5897e-05
1.41631e-07
-1.59422e-05
1.33403e-07
-1.59855e-05
1.26437e-07
-1.60274e-05
1.21416e-07
-1.60679e-05
1.17523e-07
-1.61072e-05
1.1495e-07
-1.61455e-05
1.13239e-07
-1.6183e-05
1.1262e-07
-1.62198e-05
1.12593e-07
-1.62561e-05
1.13296e-07
-1.6292e-05
1.14418e-07
-1.63277e-05
1.15623e-07
-1.63634e-05
1.17679e-07
-1.6399e-05
1.20101e-07
-1.64349e-05
1.2289e-07
-1.64709e-05
1.25541e-07
-1.65074e-05
1.2857e-07
-1.65442e-05
1.31358e-07
-1.65815e-05
1.34221e-07
-1.66192e-05
1.37067e-07
-1.66574e-05
1.39608e-07
-1.66961e-05
1.41585e-07
-1.67353e-05
1.43468e-07
-1.67751e-05
1.44381e-07
-1.68153e-05
1.44936e-07
-1.68558e-05
1.44459e-07
-1.68967e-05
1.42959e-07
-1.69377e-05
1.40766e-07
-1.69788e-05
1.36826e-07
-1.70199e-05
1.31353e-07
-1.70607e-05
1.24344e-07
-1.7101e-05
1.15001e-07
-1.71408e-05
1.03726e-07
-1.71798e-05
8.94627e-08
-1.72177e-05
7.22148e-08
-1.72541e-05
5.17357e-08
-1.7289e-05
2.72568e-08
-1.73218e-05
-1.60589e-09
-1.73524e-05
-3.45471e-08
-1.73805e-05
-7.23859e-08
-1.74054e-05
-1.14437e-07
-1.74267e-05
-1.60537e-07
-1.74437e-05
-2.09778e-07
-1.74558e-05
-2.61434e-07
-1.74621e-05
-3.13468e-07
-1.74618e-05
-3.63742e-07
-1.7454e-05
-4.10856e-07
-1.74377e-05
-4.52001e-07
-1.74122e-05
-4.86567e-07
-1.73768e-05
-5.12795e-07
-1.73309e-05
-5.30196e-07
-1.72742e-05
-5.39862e-07
-1.72063e-05
-5.44261e-07
-1.71272e-05
-5.424e-07
-1.70366e-05
-5.39866e-07
-1.69352e-05
-5.30845e-07
-1.68222e-05
-5.28075e-07
-1.66986e-05
-5.20215e-07
-1.65643e-05
-5.15959e-07
-1.642e-05
-5.11855e-07
-1.62662e-05
-5.09908e-07
-1.61031e-05
-5.11043e-07
-1.5931e-05
-5.17458e-07
-1.57511e-05
-5.23869e-07
-1.55637e-05
-5.35027e-07
-1.537e-05
-5.45951e-07
-1.51702e-05
-5.65099e-07
-1.49669e-05
-5.75603e-07
-1.47646e-05
-5.7028e-07
-1.45656e-05
-5.63227e-07
-1.43796e-05
-5.05801e-07
-1.42094e-05
-4.50361e-07
-1.40716e-05
-3.0453e-07
-1.39791e-05
-9.58148e-08
2.4168e-07
-1.50747e-05
-5.44281e-08
-1.50972e-05
4.54214e-07
-1.51647e-05
6.67404e-07
-1.52605e-05
8.65196e-07
-1.53768e-05
9.5756e-07
-1.54999e-05
9.393e-07
-1.56278e-05
9.33279e-07
-1.5754e-05
8.81286e-07
-1.58761e-05
8.18205e-07
-1.59938e-05
7.55253e-07
-1.61066e-05
6.94083e-07
-1.62143e-05
6.31187e-07
-1.63168e-05
5.72765e-07
-1.64143e-05
5.19906e-07
-1.65066e-05
4.67049e-07
-1.65945e-05
4.25375e-07
-1.66773e-05
3.79614e-07
-1.67563e-05
3.45478e-07
-1.68314e-05
3.12898e-07
-1.69031e-05
2.8769e-07
-1.69719e-05
2.65126e-07
-1.70377e-05
2.45202e-07
-1.71008e-05
2.27158e-07
-1.71614e-05
2.12619e-07
-1.72197e-05
1.99902e-07
-1.72759e-05
1.89596e-07
-1.73301e-05
1.80699e-07
-1.73828e-05
1.7409e-07
-1.7434e-05
1.68704e-07
-1.74839e-05
1.64825e-07
-1.75326e-05
1.61971e-07
-1.75804e-05
1.60425e-07
-1.76274e-05
1.59617e-07
-1.76738e-05
1.59713e-07
-1.77198e-05
1.60376e-07
-1.77655e-05
1.61303e-07
-1.7811e-05
1.63224e-07
-1.78566e-05
1.65646e-07
-1.79023e-05
1.68577e-07
-1.79482e-05
1.71489e-07
-1.79945e-05
1.7489e-07
-1.80413e-05
1.78094e-07
-1.80885e-05
1.81448e-07
-1.81362e-05
1.84777e-07
-1.81845e-05
1.87906e-07
-1.82334e-05
1.90495e-07
-1.8283e-05
1.93036e-07
-1.83331e-05
1.94541e-07
-1.83839e-05
1.95693e-07
-1.84352e-05
1.95734e-07
-1.84869e-05
1.94665e-07
-1.85389e-05
1.9284e-07
-1.85912e-05
1.89117e-07
-1.86436e-05
1.8374e-07
-1.8696e-05
1.76687e-07
-1.8748e-05
1.67082e-07
-1.87997e-05
1.5537e-07
-1.88506e-05
1.40389e-07
-1.89005e-05
1.22149e-07
-1.89491e-05
1.00297e-07
-1.8996e-05
7.41377e-08
-1.90408e-05
4.31903e-08
-1.90831e-05
7.73528e-09
-1.91223e-05
-3.31192e-08
-1.9158e-05
-7.8818e-08
-1.91892e-05
-1.29312e-07
-1.92152e-05
-1.83781e-07
-1.9235e-05
-2.41578e-07
-1.92477e-05
-3.00814e-07
-1.92521e-05
-3.59331e-07
-1.92471e-05
-4.15816e-07
-1.92318e-05
-4.67288e-07
-1.92052e-05
-5.13212e-07
-1.91665e-05
-5.51541e-07
-1.91151e-05
-5.81598e-07
-1.90506e-05
-6.04365e-07
-1.89725e-05
-6.22348e-07
-1.88808e-05
-6.34047e-07
-1.87753e-05
-6.45433e-07
-1.86565e-05
-6.49642e-07
-1.85237e-05
-6.60808e-07
-1.8378e-05
-6.65921e-07
-1.82195e-05
-6.74486e-07
-1.80489e-05
-6.82472e-07
-1.78668e-05
-6.91972e-07
-1.76739e-05
-7.03967e-07
-1.74706e-05
-7.20727e-07
-1.72583e-05
-7.3616e-07
-1.70377e-05
-7.55612e-07
-1.68103e-05
-7.73394e-07
-1.65765e-05
-7.98869e-07
-1.63394e-05
-8.12712e-07
-1.61037e-05
-8.06003e-07
-1.58725e-05
-7.94464e-07
-1.56556e-05
-7.22647e-07
-1.54569e-05
-6.4906e-07
-1.52933e-05
-4.68149e-07
-1.51791e-05
-2.10017e-07
2.01898e-07
-1.61966e-05
-1.27336e-07
-1.62126e-05
4.70272e-07
-1.62781e-05
7.32863e-07
-1.63709e-05
9.57972e-07
-1.64862e-05
1.07287e-06
-1.66115e-05
1.06462e-06
-1.67431e-05
1.06493e-06
-1.68749e-05
1.01306e-06
-1.70038e-05
9.47107e-07
-1.71295e-05
8.80929e-07
-1.72512e-05
8.15787e-07
-1.73687e-05
7.48653e-07
-1.74815e-05
6.85622e-07
-1.759e-05
6.28352e-07
-1.76936e-05
5.70677e-07
-1.77932e-05
5.24982e-07
-1.78881e-05
4.7453e-07
-1.79792e-05
4.36604e-07
-1.80666e-05
4.00297e-07
-1.81508e-05
3.71839e-07
-1.82319e-05
3.46279e-07
-1.83102e-05
3.23478e-07
-1.83857e-05
3.02648e-07
-1.84586e-05
2.85564e-07
-1.85292e-05
2.70433e-07
-1.85975e-05
2.57932e-07
-1.86638e-05
2.46996e-07
-1.87284e-05
2.38647e-07
-1.87913e-05
2.31635e-07
-1.88528e-05
2.26312e-07
-1.8913e-05
2.22182e-07
-1.89721e-05
2.19578e-07
-1.90304e-05
2.17861e-07
-1.90879e-05
2.17246e-07
-1.91449e-05
2.17358e-07
-1.92015e-05
2.1794e-07
-1.9258e-05
2.19663e-07
-1.93144e-05
2.22035e-07
-1.93709e-05
2.25072e-07
-1.94276e-05
2.28219e-07
-1.94847e-05
2.31986e-07
-1.95422e-05
2.35624e-07
-1.96003e-05
2.39498e-07
-1.96589e-05
2.43363e-07
-1.97181e-05
2.47139e-07
-1.9778e-05
2.50414e-07
-1.98387e-05
2.53682e-07
-1.99e-05
2.55873e-07
-1.9962e-05
2.57709e-07
-2.00246e-05
2.58363e-07
-2.00878e-05
2.57827e-07
-2.01514e-05
2.56444e-07
-2.02153e-05
2.53029e-07
-2.02794e-05
2.47813e-07
-2.03435e-05
2.40758e-07
-2.04073e-05
2.309e-07
-2.04706e-05
2.18711e-07
-2.05332e-05
2.02922e-07
-2.05945e-05
1.83513e-07
-2.06543e-05
1.60036e-07
-2.07119e-05
1.31808e-07
-2.0767e-05
9.82515e-08
-2.08188e-05
5.95846e-08
-2.08667e-05
1.47905e-08
-2.09099e-05
-3.56467e-08
-2.09474e-05
-9.18106e-08
-2.09782e-05
-1.52979e-07
-2.10012e-05
-2.18569e-07
-2.10152e-05
-2.86824e-07
-2.1019e-05
-3.5552e-07
-2.10115e-05
-4.23389e-07
-2.09915e-05
-4.8725e-07
-2.09581e-05
-5.46591e-07
-2.09106e-05
-5.99094e-07
-2.08483e-05
-6.4388e-07
-2.07708e-05
-6.81799e-07
-2.06778e-05
-7.15397e-07
-2.05692e-05
-7.42688e-07
-2.04447e-05
-7.69938e-07
-2.03049e-05
-7.89349e-07