/*--------------------------------*- C++ -*----------------------------------*\
  =========                 |
  \\      /  F ield         | OpenFOAM: The Open Source CFD Toolbox
   \\    /   O peration     | Website:  https://openfoam.org
    \\  /    A nd           | Version:  8
     \\/     M anipulation  |
\*---------------------------------------------------------------------------*/
FoamFile
{
    version     2.0;
    format      ascii;
    class       volVectorField;
    location    "10000";
    object      U;
}
// * * * * * * * * * * * * * * * * * * * * * * * * * * * * * * * * * * * * * //

dimensions      [0 1 -1 0 0 0 0];

internalField   nonuniform List<vector> 
14751
(
(0.00161701 -7.02461e-08 0)
(0.00163312 -2.05015e-07 0)
(0.0016541 -2.90595e-08 2.06671e-27)
(0.00166514 -1.46804e-08 -2.06748e-27)
(0.0016764 6.73759e-08 8.1345e-27)
(0.00168113 1.27966e-07 -1.55369e-25)
(0.00168247 1.79551e-07 0)
(0.00168025 2.3927e-07 3.71027e-27)
(0.00167414 2.86206e-07 5.78098e-28)
(0.00166493 3.27303e-07 5.45271e-27)
(0.00165289 3.59075e-07 1.14839e-27)
(0.00163837 3.865e-07 -7.46015e-25)
(0.00162163 4.05022e-07 0)
(0.00160336 4.15389e-07 2.84644e-26)
(0.0015838 4.20516e-07 9.16672e-25)
(0.0015634 4.14739e-07 5.04985e-25)
(0.00154252 4.05864e-07 -3.43862e-26)
(0.00152131 3.8747e-07 3.44167e-26)
(0.00150018 3.67514e-07 5.92353e-25)
(0.00147928 3.42268e-07 6.17829e-25)
(0.00145892 3.16934e-07 0)
(0.00143914 2.90957e-07 7.05174e-25)
(0.00142007 2.66117e-07 -4.20801e-26)
(0.00140185 2.41636e-07 4.42855e-26)
(0.00138462 2.19127e-07 -4.43192e-26)
(0.00136831 1.97852e-07 -1.4622e-24)
(0.00135296 1.7859e-07 0)
(0.00133859 1.60206e-07 -3.77136e-25)
(0.00132516 1.43623e-07 0)
(0.00131274 1.2814e-07 0)
(0.0013013 1.14124e-07 0)
(0.0012908 1.01297e-07 0)
(0.00128122 8.98673e-08 0)
(0.00127252 7.95168e-08 -2.45647e-26)
(0.00126466 7.02509e-08 2.45728e-26)
(0.00125758 6.17394e-08 -8.1017e-25)
(0.0012512 5.44924e-08 8.08221e-25)
(0.00124553 4.807e-08 7.80637e-25)
(0.00124054 4.23571e-08 0)
(0.00123613 3.6746e-08 0)
(0.00123222 3.19724e-08 -5.95057e-27)
(0.00122888 2.90081e-08 5.95095e-27)
(0.00122604 2.5553e-08 5.82687e-27)
(0.00122369 2.36447e-08 -5.82727e-27)
(0.00122181 2.1233e-08 -2.83885e-27)
(0.0012203 1.95872e-08 2.83902e-27)
(0.00121913 1.81602e-08 1.37617e-27)
(0.00121828 1.74567e-08 3.47974e-25)
(0.00121769 1.68375e-08 0)
(0.00121735 1.67776e-08 -3.25237e-28)
(0.0012172 1.71736e-08 3.25231e-28)
(0.00121722 1.80766e-08 6.22232e-28)
(0.00121739 1.92298e-08 -6.22216e-28)
(0.00121763 2.0809e-08 -1.18333e-27)
(0.0012179 2.27251e-08 -2.99988e-25)
(0.00121814 2.54052e-08 4.53774e-27)
(0.00121828 2.83055e-08 -2.2355e-27)
(0.00121825 3.23309e-08 0)
(0.00121786 3.73406e-08 0)
(0.00121703 4.46326e-08 0)
(0.00121559 5.19438e-08 9.78949e-25)
(0.00121329 6.23796e-08 1.87183e-24)
(0.00120995 7.21796e-08 7.18206e-27)
(0.00120523 8.32068e-08 6.53671e-27)
(0.00119891 9.7285e-08 5.86871e-27)
(0.00119088 1.12457e-07 -4.10239e-25)
(0.00118106 1.28074e-07 3.75706e-25)
(0.00116944 1.42983e-07 0)
(0.0011562 1.57369e-07 -9.5797e-27)
(0.00114181 1.69002e-07 9.57847e-27)
(0.00112681 1.77298e-07 0)
(0.00111193 1.80777e-07 0)
(0.00109799 1.79977e-07 0)
(0.00108573 1.7464e-07 0)
(0.00107587 1.65451e-07 -2.17223e-26)
(0.00106891 1.53346e-07 8.63213e-27)
(0.00106518 1.40041e-07 1.43435e-26)
(0.00106487 1.24129e-07 -1.29425e-26)
(0.00106799 1.09657e-07 1.15038e-26)
(0.00107455 8.94891e-08 4.3941e-27)
(0.00108444 7.27658e-08 -4.87149e-27)
(0.00109746 4.86601e-08 0)
(0.00111362 2.49966e-08 0)
(0.00113261 -3.57984e-09 -1.53604e-27)
(0.00115437 -3.37064e-08 1.5345e-27)
(0.0011787 -6.6392e-08 0)
(0.00120539 -9.82949e-08 0)
(0.0012342 -1.3259e-07 0)
(0.00126489 -1.63519e-07 0)
(0.00129723 -1.98064e-07 -1.74785e-25)
(0.00133079 -2.23992e-07 1.38844e-27)
(0.00136515 -2.49754e-07 0)
(0.00140031 -2.75884e-07 1.41201e-27)
(0.00143512 -2.81046e-07 6.97799e-27)
(0.00146966 -3.03839e-07 -3.65685e-27)
(0.00150343 -2.94371e-07 1.2001e-27)
(0.00153437 -2.79755e-07 2.97797e-26)
(0.00156169 -2.15167e-07 -3.96564e-28)
(0.00159344 -3.41726e-07 -2.51616e-26)
(0.00479429 -1.48067e-06 8.80954e-28)
(0.00483597 -1.85997e-06 0)
(0.00488863 -1.11454e-06 4.58623e-24)
(0.0049197 -8.19515e-07 1.91898e-25)
(0.00495049 -3.66827e-07 -2.02941e-23)
(0.00496606 9.39759e-08 -3.04255e-25)
(0.00497273 4.27697e-07 -2.408e-25)
(0.00497029 7.96595e-07 0)
(0.00495795 1.11309e-06 5.13606e-23)
(0.00493762 1.39146e-06 -3.23812e-24)
(0.00490994 1.62712e-06 0)
(0.00487585 1.82995e-06 1.08889e-24)
(0.00483609 1.98761e-06 0)
(0.00479226 2.10189e-06 0)
(0.0047451 2.18584e-06 -8.0165e-23)
(0.00469567 2.22207e-06 -1.24904e-23)
(0.00464491 2.24469e-06 1.03175e-22)
(0.00459325 2.22666e-06 2.79237e-23)
(0.00454172 2.19591e-06 -2.89246e-23)
(0.00449071 2.13902e-06 -9.37389e-25)
(0.00444103 2.06812e-06 -1.58702e-23)
(0.00439277 1.98493e-06 1.49125e-23)
(0.00434634 1.89272e-06 0)
(0.00430206 1.79194e-06 0)
(0.00426026 1.68683e-06 0)
(0.00422082 1.57762e-06 2.25012e-24)
(0.00418387 1.47042e-06 -1.28268e-22)
(0.00414942 1.36086e-06 -1.67049e-22)
(0.00411746 1.25557e-06 0)
(0.00408808 1.15115e-06 6.68458e-23)
(0.00406124 1.05072e-06 8.67378e-23)
(0.00403686 9.53772e-07 -7.76738e-23)
(0.00401486 8.61982e-07 0)
(0.00399515 7.74394e-07 9.79162e-24)
(0.00397766 6.91777e-07 -9.8044e-23)
(0.00396217 6.13699e-07 1.59305e-23)
(0.00394853 5.42119e-07 -6.12327e-24)
(0.00393677 4.74664e-07 -4.02379e-23)
(0.00392674 4.12108e-07 0)
(0.00391826 3.52702e-07 0)
(0.0039111 2.98994e-07 4.76587e-24)
(0.0039054 2.52822e-07 -4.76786e-24)
(0.003901 2.07731e-07 1.64543e-23)
(0.00389785 1.69697e-07 2.33546e-24)
(0.00389591 1.32204e-07 0)
(0.00389489 1.00416e-07 0)
(0.00389475 7.12752e-08 0)
(0.00389537 4.70854e-08 -4.92281e-24)
(0.00389664 2.54002e-08 0)
(0.00389848 8.33408e-09 0)
(0.00390074 -4.6388e-09 -5.10145e-25)
(0.00390336 -1.3682e-08 5.10021e-25)
(0.00390623 -1.85638e-08 0)
(0.00390914 -1.84551e-08 -7.68121e-24)
(0.00391197 -1.35997e-08 1.54191e-23)
(0.00391451 -1.76282e-09 1.78896e-24)
(0.00391658 1.65672e-08 -1.41449e-23)
(0.00391787 4.81032e-08 -1.7327e-24)
(0.0039179 9.41513e-08 2.31184e-23)
(0.00391633 1.58742e-07 3.23418e-24)
(0.00391266 2.3864e-07 -4.51998e-24)
(0.00390612 3.44544e-07 6.14248e-26)
(0.00389611 4.66841e-07 0)
(0.0038817 6.12309e-07 -5.21592e-24)
(0.00386216 7.81441e-07 5.21457e-24)
(0.00383712 9.62535e-07 6.0162e-25)
(0.00380626 1.14639e-06 -5.67149e-25)
(0.00376958 1.31845e-06 0)
(0.00372759 1.46343e-06 0)
(0.00368157 1.55928e-06 -2.94064e-23)
(0.00363316 1.59216e-06 0)
(0.00358453 1.54854e-06 5.85098e-24)
(0.00353811 1.42917e-06 -5.84934e-24)
(0.00349621 1.238e-06 0)
(0.003461 9.87458e-07 3.38385e-26)
(0.00343412 6.95186e-07 0)
(0.00341663 3.80403e-07 -2.45526e-26)
(0.00340914 5.11531e-08 0)
(0.00341173 -2.70663e-07 -1.61069e-23)
(0.00342437 -6.01325e-07 0)
(0.00344671 -9.01523e-07 7.51187e-27)
(0.00347813 -1.20834e-06 3.80447e-24)
(0.00351848 -1.48987e-06 -1.56737e-25)
(0.00356683 -1.76297e-06 -3.23261e-24)
(0.00362285 -2.01902e-06 0)
(0.00368585 -2.25973e-06 0)
(0.0037551 -2.47624e-06 0)
(0.00382984 -2.68035e-06 -1.36418e-23)
(0.00390927 -2.85357e-06 -1.53131e-23)
(0.00399261 -3.01382e-06 2.58814e-25)
(0.00407864 -3.11609e-06 5.47673e-25)
(0.00416619 -3.19931e-06 -5.44785e-25)
(0.00425492 -3.25402e-06 6.66105e-26)
(0.00434239 -3.21482e-06 -8.25128e-26)
(0.00442839 -3.21593e-06 -1.57686e-23)
(0.00451167 -3.03141e-06 4.48072e-25)
(0.00458778 -2.78754e-06 -1.09829e-23)
(0.00465791 -2.5555e-06 0)
(0.00473462 -2.82546e-06 3.64676e-26)
(0.00796413 -4.18907e-06 -3.58503e-27)
(0.00802405 -4.69416e-06 -1.04381e-25)
(0.00810045 -3.16725e-06 -4.91281e-24)
(0.00815132 -2.37003e-06 -2.98826e-23)
(0.00820208 -1.32172e-06 2.30567e-23)
(0.00823312 -1.74176e-07 -1.47822e-24)
(0.00825113 7.06566e-07 0)
(0.00825626 1.65583e-06 0)
(0.00824724 2.50321e-06 1.47557e-22)
(0.00822657 3.25587e-06 -6.34352e-24)
(0.0081952 3.90922e-06 -2.29116e-22)
(0.00815454 4.47084e-06 -2.72104e-22)
(0.00810569 4.92888e-06 1.64662e-24)
(0.00805078 5.27985e-06 -3.49281e-22)
(0.00799096 5.54526e-06 4.68521e-22)
(0.0079277 5.69577e-06 -2.31402e-23)
(0.00786237 5.79602e-06 2.5323e-22)
(0.0077956 5.79517e-06 5.25183e-23)
(0.00772889 5.74862e-06 0)
(0.0076628 5.6372e-06 4.44509e-22)
(0.00759847 5.47829e-06 -4.64104e-22)
(0.00753607 5.28329e-06 0)
(0.0074762 5.05811e-06 0)
(0.00741927 4.80935e-06 0)
(0.00736574 4.53973e-06 -2.79202e-22)
(0.00731553 4.25433e-06 0)
(0.00726883 3.96979e-06 -1.81931e-22)
(0.00722565 3.67453e-06 1.84338e-22)
(0.00718598 3.38827e-06 -2.99289e-22)
(0.00714995 3.10135e-06 -7.56393e-23)
(0.00711748 2.822e-06 -9.5414e-23)
(0.00708849 2.54985e-06 9.5928e-23)
(0.00706286 2.28906e-06 3.27788e-22)
(0.00704047 2.03865e-06 -3.8643e-23)
(0.00702118 1.80077e-06 9.67119e-23)
(0.00700473 1.57353e-06 1.9297e-23)
(0.00699091 1.36369e-06 -9.68219e-24)
(0.00697973 1.16471e-06 2.8767e-23)
(0.00697098 9.79464e-07 0)
(0.00696442 8.02789e-07 -7.57812e-23)
(0.00695976 6.4343e-07 -9.34824e-24)
(0.00695711 5.00737e-07 9.34244e-24)
(0.00695626 3.63624e-07 -1.83882e-23)
(0.00695712 2.4504e-07 0)
(0.00695962 1.29551e-07 3.58109e-23)
(0.00696338 3.02357e-08 -2.18735e-24)
(0.00696831 -6.01507e-08 2.18514e-24)
(0.00697424 -1.36949e-07 3.20429e-24)
(0.006981 -2.04641e-07 -7.3035e-24)
(0.00698844 -2.58951e-07 -5.09146e-25)
(0.00699634 -3.0073e-07 8.26467e-24)
(0.00700458 -3.29569e-07 0)
(0.00701298 -3.4495e-07 -1.88565e-24)
(0.00702119 -3.43663e-07 1.29958e-23)
(0.00702899 -3.25628e-07 -1.8144e-23)
(0.00703605 -2.85265e-07 -5.97004e-23)
(0.00704201 -2.20417e-07 1.03832e-23)
(0.00704638 -1.13674e-07 6.70349e-24)
(0.0070484 4.14879e-08 -3.17457e-23)
(0.00704742 2.55534e-07 2.29321e-25)
(0.00704261 5.25046e-07 -9.43289e-23)
(0.00703272 8.75159e-07 9.10153e-23)
(0.00701669 1.29172e-06 1.61707e-23)
(0.00699308 1.78522e-06 7.23924e-23)
(0.00696062 2.35252e-06 7.9053e-23)
(0.00691854 2.96087e-06 8.41334e-23)
(0.00686615 3.58003e-06 -1.77245e-23)
(0.00680332 4.16157e-06 8.61851e-24)
(0.00673069 4.65139e-06 -1.24944e-22)
(0.00665008 4.97972e-06 1.51134e-23)
(0.00656407 5.09786e-06 2.68034e-23)
(0.00647614 4.96468e-06 -1.28598e-23)
(0.00639028 4.57761e-06 1.04865e-23)
(0.00631052 3.95188e-06 -1.98215e-23)
(0.00624062 3.12928e-06 9.32357e-24)
(0.0061836 2.16815e-06 0)
(0.00614149 1.13113e-06 -5.08137e-23)
(0.00611547 5.77066e-08 8.31347e-23)
(0.00610589 -9.93148e-07 -4.88702e-23)
(0.00611258 -2.03767e-06 -4.77586e-23)
(0.00613501 -2.99506e-06 2.91132e-24)
(0.00617204 -3.93123e-06 -6.73813e-24)
(0.00622326 -4.78334e-06 1.58002e-25)
(0.00628712 -5.58094e-06 1.62342e-23)
(0.00636284 -6.3077e-06 2.7354e-23)
(0.00644915 -6.96393e-06 -3.8457e-23)
(0.00654475 -7.53341e-06 0)
(0.00664824 -8.03721e-06 9.98105e-24)
(0.00675832 -8.4392e-06 1.88151e-23)
(0.00687347 -8.76853e-06 -6.35621e-23)
(0.00699187 -8.94361e-06 -7.06432e-23)
(0.00711167 -9.03521e-06 5.41232e-25)
(0.00723209 -9.02723e-06 -6.9022e-23)
(0.00735028 -8.80874e-06 0)
(0.00746558 -8.6156e-06 1.58943e-23)
(0.00757664 -8.03036e-06 -8.75807e-25)
(0.0076786 -7.3631e-06 1.05317e-23)
(0.0077759 -6.80329e-06 1.43076e-25)
(0.00787954 -7.0085e-06 7.09284e-26)
(0.0110883 -8.0331e-06 2.67236e-27)
(0.0111565 -8.22189e-06 0)
(0.0112466 -5.74319e-06 3.54775e-23)
(0.0113118 -4.09848e-06 2.88538e-23)
(0.0113777 -2.21123e-06 3.57101e-25)
(0.0114224 -1.25922e-07 -2.04823e-22)
(0.0114511 1.57843e-06 0)
(0.0114647 3.34395e-06 0)
(0.0114614 4.95174e-06 -5.34934e-22)
(0.0114441 6.38277e-06 -1.36107e-23)
(0.0114139 7.63686e-06 -2.02582e-22)
(0.0113726 8.71008e-06 2.59514e-22)
(0.0113214 9.59932e-06 -5.84659e-22)
(0.0112629 1.02888e-05 3.09111e-22)
(0.0111984 1.08105e-05 -3.33522e-22)
(0.0111297 1.1129e-05 7.13653e-22)
(0.0110583 1.13298e-05 -3.78983e-22)
(0.0109851 1.13523e-05 8.50918e-22)
(0.0109117 1.12726e-05 -5.12364e-23)
(0.010839 1.10755e-05 -4.93227e-22)
(0.0107681 1.07803e-05 5.67612e-22)
(0.0106993 1.04132e-05 -5.77252e-23)
(0.0106333 9.98366e-06 6.11329e-23)
(0.0105705 9.50799e-06 -6.1117e-23)
(0.0105115 8.98604e-06 1.89048e-22)
(0.0104562 8.43326e-06 6.37646e-23)
(0.0104048 7.87526e-06 2.94283e-22)
(0.0103574 7.29514e-06 -5.28798e-22)
(0.0103139 6.7282e-06 2.67538e-22)
(0.0102746 6.15842e-06 5.04802e-22)
(0.0102392 5.60016e-06 -5.74928e-22)
(0.0102078 5.05407e-06 3.38253e-23)
(0.0101802 4.52719e-06 -2.71594e-22)
(0.0101563 4.01966e-06 0)
(0.0101359 3.53509e-06 -2.70655e-22)
(0.0101188 3.06948e-06 -1.6822e-23)
(0.0101048 2.63694e-06 5.72437e-26)
(0.0100938 2.22464e-06 -2.32763e-22)
(0.0100856 1.83778e-06 -2.80215e-22)
(0.0100801 1.46727e-06 1.95787e-22)
(0.0100769 1.13101e-06 8.02825e-24)
(0.0100761 8.22799e-07 -8.00177e-24)
(0.0100774 5.28294e-07 0)
(0.0100809 2.6802e-07 0)
(0.0100864 1.52079e-08 -3.04487e-23)
(0.0100935 -2.0719e-07 0)
(0.0101021 -4.10827e-07 5.8744e-23)
(0.0101121 -5.89081e-07 0)
(0.0101232 -7.47707e-07 7.05082e-24)
(0.0101354 -8.8066e-07 2.15532e-25)
(0.0101483 -9.88421e-07 -8.4048e-24)
(0.0101618 -1.06895e-06 4.91189e-24)
(0.0101758 -1.12216e-06 -3.24279e-24)
(0.0101897 -1.14034e-06 0)
(0.0102034 -1.12199e-06 -5.97954e-24)
(0.0102164 -1.05648e-06 5.887e-23)
(0.0102283 -9.36919e-07 -5.79428e-24)
(0.0102386 -7.36158e-07 0)
(0.0102464 -4.38957e-07 -7.48992e-23)
(0.010251 -2.26814e-08 -8.27497e-23)
(0.0102516 5.08709e-07 6.92094e-23)
(0.0102466 1.19993e-06 -6.69252e-23)
(0.010235 2.03401e-06 1.45926e-22)
(0.0102151 3.0259e-06 -7.9037e-23)
(0.0101854 4.17337e-06 -6.69532e-23)
(0.0101448 5.42055e-06 -4.83212e-23)
(0.0100922 6.71416e-06 -1.56244e-23)
(0.0100267 7.96381e-06 1.38778e-23)
(0.00994848 9.06698e-06 -1.35474e-22)
(0.00985854 9.88503e-06 2.16557e-22)
(0.00975893 1.03074e-05 1.13133e-23)
(0.0096529 1.02336e-05 -1.14763e-23)
(0.00954474 9.62617e-06 1.89171e-23)
(0.00943936 8.49038e-06 -1.91746e-23)
(0.00934196 6.89307e-06 1.49535e-23)
(0.00925722 4.94783e-06 -1.51109e-23)
(0.00918885 2.78955e-06 1.53747e-22)
(0.00913933 5.24509e-07 -1.59136e-22)
(0.00911 -1.7209e-06 1.76903e-22)
(0.00910113 -3.93362e-06 4.55833e-23)
(0.00911244 -5.98068e-06 5.97973e-23)
(0.00914259 -7.93942e-06 2.96814e-23)
(0.00919102 -9.71772e-06 -1.3504e-24)
(0.00925578 -1.13507e-05 -1.25176e-23)
(0.0093357 -1.28121e-05 2.44495e-23)
(0.00942893 -1.40987e-05 3.52582e-23)
(0.00953364 -1.51888e-05 -8.91687e-23)
(0.00964783 -1.61104e-05 -1.04929e-22)
(0.00976967 -1.68106e-05 -3.8322e-24)
(0.00989702 -1.73271e-05 7.12217e-23)
(0.0100275 -1.75512e-05 6.20844e-23)
(0.0101588 -1.75759e-05 0)
(0.0102897 -1.73896e-05 1.97774e-22)
(0.0104175 -1.68456e-05 -8.20082e-25)
(0.0105411 -1.62521e-05 9.38086e-25)
(0.0106598 -1.50682e-05 7.16118e-25)
(0.0107695 -1.37715e-05 -7.11511e-25)
(0.0108772 -1.26375e-05 4.48024e-29)
(0.010991 -1.24035e-05 -3.39912e-26)
(0.0140835 -1.24188e-05 1.11109e-28)
(0.0141465 -1.17402e-05 -1.85234e-25)
(0.0142358 -8.17569e-06 1.61841e-25)
(0.0143028 -5.35617e-06 0)
(0.0143709 -2.41171e-06 1.43433e-22)
(0.0144175 8.08853e-07 1.86365e-22)
(0.014446 3.58943e-06 0)
(0.0144578 6.36504e-06 0)
(0.0144508 8.92349e-06 3.22588e-22)
(0.014428 1.12018e-05 3.81182e-22)
(0.0143907 1.32055e-05 4.02633e-22)
(0.0143408 1.49122e-05 0)
(0.0142801 1.63342e-05 1.00741e-21)
(0.0142108 1.74386e-05 0)
(0.0141348 1.82679e-05 5.85801e-22)
(0.0140538 1.87892e-05 -6.23393e-22)
(0.0139696 1.90973e-05 -5.74058e-22)
(0.0138832 1.91394e-05 -7.75271e-22)
(0.0137964 1.90009e-05 -7.20856e-22)
(0.01371 1.86793e-05 0)
(0.0136255 1.81934e-05 -7.71765e-22)
(0.0135431 1.75878e-05 0)
(0.0134636 1.68777e-05 8.11658e-22)
(0.0133876 1.6091e-05 8.27642e-22)
(0.0133154 1.52267e-05 -5.30729e-23)
(0.0132473 1.43131e-05 -9.35363e-25)
(0.0131835 1.33828e-05 5.33743e-23)
(0.0131241 1.24183e-05 -4.33709e-22)
(0.0130692 1.14689e-05 -5.47557e-23)
(0.0130187 1.05152e-05 -3.82939e-22)
(0.0129728 9.57758e-06 4.65213e-22)
(0.0129313 8.65895e-06 -2.72627e-23)
(0.0128941 7.76901e-06 -2.72858e-23)
(0.0128611 6.90925e-06 2.71149e-23)
(0.0128323 6.08451e-06 2.15828e-22)
(0.0128073 5.28959e-06 4.28443e-22)
(0.012786 4.54515e-06 0)
(0.0127684 3.83332e-06 2.23316e-22)
(0.0127542 3.16147e-06 1.94811e-22)
(0.0127433 2.51711e-06 -8.98486e-23)
(0.0127355 1.92551e-06 -1.27052e-23)
(0.0127307 1.37492e-06 1.24033e-23)
(0.0127287 8.49967e-07 -1.23384e-23)
(0.0127295 3.75784e-07 0)
(0.012733 -8.33376e-08 0)
(0.0127388 -4.96739e-07 0)
(0.0127468 -8.79257e-07 -4.56112e-23)
(0.012757 -1.22334e-06 0)
(0.012769 -1.53499e-06 2.25252e-23)
(0.0127828 -1.80746e-06 -6.73815e-25)
(0.0127981 -2.04024e-06 1.28863e-24)
(0.0128148 -2.22933e-06 1.22673e-24)
(0.0128326 -2.37524e-06 2.38457e-24)
(0.0128513 -2.46531e-06 -4.87921e-24)
(0.0128705 -2.49598e-06 -7.49248e-23)
(0.0128899 -2.45186e-06 0)
(0.0129091 -2.32188e-06 -8.67609e-24)
(0.0129275 -2.07385e-06 2.81646e-25)
(0.0129447 -1.684e-06 7.4388e-23)
(0.0129601 -1.11653e-06 6.37102e-23)
(0.0129728 -3.75491e-07 -7.5227e-24)
(0.0129819 5.99991e-07 -6.91754e-24)
(0.0129865 1.7927e-06 -9.91082e-23)
(0.0129854 3.22019e-06 1.32943e-23)
(0.0129775 4.88277e-06 -1.3394e-23)
(0.0129619 6.70756e-06 -1.21253e-23)
(0.0129375 8.62305e-06 2.14348e-22)
(0.0129038 1.05045e-05 -1.17025e-23)
(0.0128601 1.22103e-05 1.71844e-22)
(0.0128069 1.35414e-05 -1.42777e-22)
(0.0127448 1.43289e-05 -1.68592e-24)
(0.0126753 1.44122e-05 -1.86186e-23)
(0.0126009 1.37086e-05 0)
(0.0125247 1.21974e-05 -2.53614e-22)
(0.0124505 9.94717e-06 1.43913e-23)
(0.0123823 7.10106e-06 0)
(0.0123239 3.8451e-06 -8.17392e-23)
(0.0122786 3.43951e-07 6.81193e-23)
(0.0122489 -3.21031e-06 -1.08565e-22)
(0.0122364 -6.75437e-06 0)
(0.0122422 -1.00984e-05 -5.84089e-23)
(0.0122659 -1.32955e-05 -2.34424e-23)
(0.0123075 -1.62201e-05 2.98025e-24)
(0.0123657 -1.88887e-05 0)
(0.0124395 -2.12594e-05 -4.83254e-23)
(0.0125272 -2.33178e-05 -6.13285e-23)
(0.0126267 -2.50314e-05 8.79588e-23)
(0.0127357 -2.64263e-05 1.88664e-22)
(0.0128523 -2.74371e-05 -1.05437e-22)
(0.0129739 -2.81046e-05 -3.53394e-24)
(0.0130978 -2.83079e-05 1.23135e-22)
(0.0132213 -2.81482e-05 -1.25982e-22)
(0.0133433 -2.76317e-05 -1.22251e-22)
(0.0134611 -2.65928e-05 0)
(0.0135736 -2.53773e-05 -1.06443e-22)
(0.0136813 -2.34244e-05 -9.04991e-25)
(0.013781 -2.12881e-05 -6.65226e-25)
(0.0138813 -1.92917e-05 -4.18566e-29)
(0.0139884 -1.82446e-05 -3.16484e-26)
(0.016798 -1.64368e-05 -9.94952e-29)
(0.0168405 -1.4388e-05 9.86027e-29)
(0.0169111 -9.62622e-06 -2.98797e-23)
(0.0169613 -5.36456e-06 -9.04651e-23)
(0.017012 -1.18475e-06 1.26601e-22)
(0.017041 3.31656e-06 -3.27579e-22)
(0.0170504 7.36322e-06 0)
(0.017042 1.12813e-05 4.80849e-22)
(0.0170138 1.49134e-05 5.67721e-22)
(0.0169687 1.81406e-05 -3.26953e-22)
(0.0169085 2.09748e-05 -7.10254e-22)
(0.0168353 2.33731e-05 -8.08723e-22)
(0.0167509 2.5366e-05 -1.25367e-21)
(0.016658 2.69055e-05 0)
(0.0165584 2.8045e-05 4.90388e-22)
(0.016454 2.87603e-05 6.68547e-23)
(0.0163468 2.91468e-05 4.79535e-22)
(0.0162378 2.91734e-05 -7.29276e-23)
(0.016129 2.89264e-05 7.39431e-22)
(0.0160212 2.84237e-05 -1.29639e-21)
(0.0159159 2.76845e-05 6.27696e-22)
(0.0158135 2.67714e-05 -8.14414e-23)
(0.0157148 2.57069e-05 -5.73964e-22)
(0.0156203 2.45307e-05 -1.24576e-21)
(0.0155305 2.32444e-05 -8.32423e-23)
(0.0154455 2.18888e-05 6.79687e-22)
(0.0153658 2.05014e-05 -4.30757e-23)
(0.0152913 1.90693e-05 7.30365e-22)
(0.0152221 1.76517e-05 -6.8929e-22)
(0.0151583 1.62294e-05 -4.3257e-23)
(0.0150998 1.48279e-05 -6.45728e-22)
(0.0150466 1.34527e-05 0)
(0.0149985 1.21158e-05 0)
(0.0149555 1.08209e-05 2.12226e-23)
(0.0149174 9.574e-06 -1.05489e-26)
(0.014884 8.36926e-06 -6.6801e-22)
(0.0148551 7.23238e-06 -2.06931e-23)
(0.0148306 6.14179e-06 3.26949e-22)
(0.0148104 5.10593e-06 -3.22954e-22)
(0.0147943 4.11059e-06 0)
(0.014782 3.18536e-06 1.47304e-22)
(0.0147735 2.31431e-06 9.71361e-24)
(0.0147686 1.48275e-06 9.45674e-24)
(0.0147672 7.17679e-07 -9.40584e-24)
(0.0147692 -2.24784e-08 -4.55871e-24)
(0.0147743 -7.0267e-07 9.00702e-24)
(0.0147824 -1.3395e-06 6.6201e-23)
(0.0147934 -1.9253e-06 2.14289e-24)
(0.014807 -2.4658e-06 -2.1347e-24)
(0.0148231 -2.95431e-06 -5.1171e-25)
(0.0148416 -3.38924e-06 5.10203e-25)
(0.0148623 -3.76489e-06 0)
(0.014885 -4.08231e-06 6.14541e-23)
(0.0149094 -4.32504e-06 0)
(0.0149353 -4.48757e-06 5.81881e-23)
(0.0149623 -4.55149e-06 -1.13067e-22)
(0.0149902 -4.50358e-06 0)
(0.0150186 -4.31095e-06 -1.0633e-22)
(0.015047 -3.94527e-06 6.3165e-24)
(0.0150753 -3.36159e-06 -6.32958e-24)
(0.0151028 -2.56408e-06 -1.91967e-22)
(0.0151289 -1.48288e-06 -1.8502e-22)
(0.0151531 -1.35315e-07 0)
(0.0151747 1.49527e-06 1.04302e-23)
(0.015193 3.41163e-06 -1.84667e-22)
(0.0152077 5.53166e-06 1.00973e-23)
(0.0152182 7.77486e-06 -4.68714e-22)
(0.0152242 9.99911e-06 3.57616e-23)
(0.0152254 1.20459e-05 2.54307e-22)
(0.0152222 1.36835e-05 1.54223e-23)
(0.0152147 1.47074e-05 -1.5788e-23)
(0.0152036 1.49144e-05 0)
(0.0151901 1.41774e-05 1.973e-22)
(0.0151754 1.24381e-05 2.1599e-22)
(0.0151611 9.74224e-06 -1.15984e-23)
(0.0151493 6.23126e-06 0)
(0.0151418 2.11331e-06 -2.82346e-22)
(0.0151407 -2.40729e-06 2.80542e-23)
(0.0151478 -7.08942e-06 1.57756e-22)
(0.0151648 -1.18152e-05 1.69502e-23)
(0.015193 -1.63505e-05 -7.10988e-24)
(0.0152325 -2.06988e-05 -1.50068e-24)
(0.0152843 -2.47102e-05 4.19291e-24)
(0.0153477 -2.83667e-05 0)
(0.0154222 -3.16017e-05 7.14129e-23)
(0.0155068 -3.43783e-05 6.64798e-23)
(0.0155999 -3.66493e-05 -8.95549e-24)
(0.0156995 -3.8429e-05 -8.07456e-23)
(0.0158039 -3.96441e-05 9.02991e-23)
(0.0159106 -4.03289e-05 6.28581e-24)
(0.0160174 -4.0363e-05 -1.09938e-22)
(0.0161212 -3.984e-05 3.35794e-22)
(0.0162214 -3.87947e-05 0)
(0.0163158 -3.7062e-05 0)
(0.0164034 -3.4995e-05 9.73336e-23)
(0.0164859 -3.21043e-05 -8.44712e-23)
(0.0165609 -2.89115e-05 -6.00134e-25)
(0.0166379 -2.5779e-05 3.77547e-29)
(0.0167223 -2.35984e-05 -2.86643e-26)
(0.0190984 -1.92111e-05 0)
(0.0191109 -1.54283e-05 -2.25375e-23)
(0.0191504 -9.3836e-06 1.42579e-25)
(0.0191708 -3.50767e-06 -7.85774e-23)
(0.0191902 2.0351e-06 -4.34492e-22)
(0.0191882 7.90984e-06 2.79054e-22)
(0.0191662 1.33358e-05 3.45639e-22)
(0.0191263 1.84723e-05 -4.1006e-22)
(0.019067 2.32405e-05 -4.72225e-22)
(0.0189913 2.74633e-05 -1.77556e-23)
(0.018901 3.11585e-05 6.12613e-22)
(0.0187987 3.42634e-05 6.53057e-22)
(0.0186862 3.68269e-05 7.54135e-22)
(0.0185662 3.87895e-05 -4.55862e-23)
(0.0184407 4.02139e-05 -8.07626e-22)
(0.0183117 4.10905e-05 -8.51641e-22)
(0.018181 4.15107e-05 -8.92045e-22)
(0.0180499 4.14721e-05 5.94019e-23)
(0.0179201 4.10578e-05 -5.86903e-23)
(0.0177927 4.0309e-05 1.0524e-21)
(0.0176689 3.9246e-05 9.51823e-22)
(0.0175492 3.79493e-05 0)
(0.0174343 3.64499e-05 0)
(0.0173247 3.47993e-05 5.33852e-22)
(0.0172208 3.3005e-05 -6.80971e-23)
(0.0171229 3.11191e-05 -5.45263e-22)
(0.0170311 2.91841e-05 1.02278e-22)
(0.0169454 2.71943e-05 1.06406e-21)
(0.0168661 2.52162e-05 5.15443e-22)
(0.016793 2.32339e-05 6.18433e-22)
(0.016726 2.12772e-05 1.02879e-21)
(0.0166652 1.93549e-05 5.46545e-22)
(0.0166103 1.74814e-05 5.77909e-22)
(0.0165612 1.56624e-05 -5.74321e-22)
(0.0165177 1.39053e-05 3.35244e-23)
(0.0164797 1.22043e-05 7.81074e-22)
(0.0164469 1.05882e-05 1.64774e-23)
(0.0164192 9.03414e-06 -2.60429e-22)
(0.0163965 7.55116e-06 4.9864e-22)
(0.0163785 6.12383e-06 -2.38108e-22)
(0.016365 4.78351e-06 -1.25282e-22)
(0.016356 3.5115e-06 2.39225e-22)
(0.0163511 2.29459e-06 1.51884e-23)
(0.0163505 1.15934e-06 -7.51653e-24)
(0.0163538 6.12615e-08 1.17501e-22)
(0.0163609 -9.63088e-07 -1.15383e-22)
(0.0163716 -1.93115e-06 -5.66016e-23)
(0.0163859 -2.83578e-06 0)
(0.0164034 -3.68224e-06 -4.11787e-23)
(0.0164243 -4.4645e-06 4.19517e-25)
(0.0164481 -5.18013e-06 2.59958e-23)
(0.0164749 -5.82232e-06 0)
(0.0165044 -6.39271e-06 3.81788e-27)
(0.0165365 -6.87255e-06 0)
(0.0165708 -7.25542e-06 0)
(0.0166074 -7.52185e-06 1.83059e-22)
(0.0166458 -7.65729e-06 8.89548e-23)
(0.0166858 -7.63001e-06 8.63384e-23)
(0.0167273 -7.41029e-06 1.67411e-22)
(0.01677 -6.95011e-06 1.52123e-22)
(0.0168136 -6.25456e-06 3.23301e-22)
(0.0168578 -5.25067e-06 1.41974e-22)
(0.0169023 -3.95651e-06 2.92031e-22)
(0.0169468 -2.35976e-06 2.89657e-22)
(0.016991 -4.59434e-07 4.0446e-22)
(0.0170348 1.65507e-06 2.58566e-22)
(0.017078 3.89597e-06 2.47233e-22)
(0.0171203 6.11062e-06 -1.42433e-23)
(0.0171619 8.13376e-06 -4.33769e-22)
(0.0172028 9.72121e-06 -2.12139e-22)
(0.017243 1.06574e-05 0)
(0.0172828 1.07285e-05 -3.84104e-22)
(0.0173225 9.79523e-06 -5.2709e-22)
(0.0173626 7.78818e-06 2.09745e-23)
(0.0174035 4.74102e-06 1.66317e-23)
(0.017446 7.83646e-07 -2.49216e-24)
(0.0174909 -3.88262e-06 2.04634e-22)
(0.017539 -9.04964e-06 0)
(0.0175912 -1.44678e-05 -1.48659e-22)
(0.0176483 -1.99872e-05 -5.8059e-24)
(0.017711 -2.53577e-05 2.39531e-24)
(0.0177793 -3.05274e-05 4.8627e-24)
(0.0178538 -3.53296e-05 -3.52754e-24)
(0.0179339 -3.96993e-05 3.50861e-23)
(0.0180194 -4.35477e-05 -1.33163e-22)
(0.0181093 -4.68101e-05 -6.79072e-24)
(0.0182023 -4.94186e-05 1.2938e-22)
(0.018297 -5.13651e-05 -1.46231e-22)
(0.0183918 -5.257e-05 0)
(0.0184846 -5.30545e-05 -2.89655e-24)
(0.0185737 -5.27097e-05 -1.07733e-25)
(0.0186564 -5.161e-05 -1.91278e-22)
(0.0187322 -4.98223e-05 0)
(0.0187999 -4.71999e-05 1.84299e-22)
(0.0188588 -4.40749e-05 -1.24965e-24)
(0.018911 -4.00876e-05 7.5772e-23)
(0.0189551 -3.56478e-05 0)
(0.0190008 -3.11648e-05 0)
(0.0190533 -2.76095e-05 2.50574e-26)
(0.0209685 -2.02139e-05 -4.0091e-26)
(0.0209492 -1.44794e-05 1.11783e-25)
(0.0209542 -7.07759e-06 -8.69701e-23)
(0.020941 5.09304e-07 2.6934e-22)
(0.0209252 7.50153e-06 1.86068e-22)
(0.0208887 1.47995e-05 -4.75939e-22)
(0.020833 2.1651e-05 -2.91712e-22)
(0.0207602 2.80311e-05 6.87688e-22)
(0.0206694 3.39424e-05 -8.05132e-22)
(0.0205635 3.91542e-05 9.06391e-22)
(0.0204447 4.3689e-05 1.63397e-23)
(0.0203154 4.74671e-05 -5.16142e-23)
(0.0201777 5.05546e-05 3.49859e-23)
(0.0200342 5.28852e-05 0)
(0.0198868 5.45304e-05 -1.37228e-21)
(0.0197376 5.54986e-05 7.41959e-22)
(0.0195883 5.5876e-05 7.31439e-22)
(0.0194401 5.56921e-05 4.86224e-23)
(0.0192947 5.50262e-05 1.4727e-21)
(0.0191531 5.39447e-05 4.94726e-23)
(0.0190163 5.24719e-05 -8.27506e-22)
(0.0188848 5.07039e-05 8.44113e-22)
(0.0187592 4.86812e-05 0)
(0.01864 4.64672e-05 0)
(0.0185275 4.40771e-05 0)
(0.0184219 4.15734e-05 0)
(0.0183233 3.9004e-05 0)
(0.0182317 3.63717e-05 -9.51962e-22)
(0.0181472 3.37482e-05 5.57723e-23)
(0.0180696 3.11226e-05 -4.48888e-22)
(0.0179989 2.85286e-05 -4.76403e-22)
(0.0179349 2.59781e-05 -1.31328e-21)
(0.0178776 2.34882e-05 -4.45228e-22)
(0.0178266 2.10669e-05 8.85624e-22)
(0.0177819 1.87226e-05 0)
(0.0177431 1.64501e-05 -4.36533e-22)
(0.0177101 1.42801e-05 4.32702e-22)
(0.0176829 1.21891e-05 4.28495e-22)
(0.017661 1.01865e-05 -2.25165e-22)
(0.0176444 8.25607e-06 2.22644e-22)
(0.0176329 6.42931e-06 1.28707e-23)
(0.0176264 4.6857e-06 -1.28167e-23)
(0.0176246 3.01361e-06 -2.01239e-22)
(0.0176274 1.4376e-06 6.15414e-24)
(0.0176347 -8.76673e-08 -1.09725e-22)
(0.0176463 -1.52619e-06 1.0195e-22)
(0.0176621 -2.89569e-06 0)
(0.017682 -4.19009e-06 -1.4326e-24)
(0.0177058 -5.4142e-06 2.41163e-23)
(0.0177333 -6.56312e-06 -6.94822e-25)
(0.0177646 -7.63398e-06 2.06734e-27)
(0.0177994 -8.61962e-06 -2.63113e-24)
(0.0178376 -9.52249e-06 -4.15659e-23)
(0.0178791 -1.0323e-05 2.57299e-24)
(0.0179237 -1.10149e-05 4.88758e-24)
(0.0179713 -1.15791e-05 -8.21857e-23)
(0.0180218 -1.20005e-05 -8.44971e-23)
(0.018075 -1.22488e-05 9.29596e-24)
(0.0181308 -1.22945e-05 -1.50882e-22)
(0.018189 -1.20909e-05 -1.29108e-22)
(0.0182496 -1.16451e-05 -4.00721e-22)
(0.0183124 -1.08851e-05 0)
(0.0183773 -9.82866e-06 -2.49474e-22)
(0.0184443 -8.46752e-06 -2.40511e-22)
(0.0185132 -6.80313e-06 -4.62927e-22)
(0.0185839 -4.92868e-06 -2.22174e-22)
(0.0186565 -2.93557e-06 2.12827e-22)
(0.0187307 -9.80355e-07 0)
(0.0188066 7.71958e-07 1.9299e-22)
(0.018884 2.07577e-06 -1.8283e-22)
(0.0189627 2.7151e-06 -3.23084e-22)
(0.0190426 2.47691e-06 6.20076e-22)
(0.0191235 1.21947e-06 5.92868e-22)
(0.0192052 -1.12806e-06 0)
(0.0192876 -4.53652e-06 2.58824e-22)
(0.0193708 -8.88206e-06 -1.45988e-23)
(0.0194549 -1.39678e-05 0)
(0.01954 -1.95821e-05 -1.57661e-22)
(0.0196266 -2.54762e-05 -6.87739e-24)
(0.0197147 -3.14757e-05 2.07957e-24)
(0.0198047 -3.73361e-05 5.04326e-24)
(0.0198963 -4.29574e-05 -6.632e-23)
(0.0199896 -4.81744e-05 -6.05779e-24)
(0.020084 -5.28831e-05 -2.38859e-23)
(0.020179 -5.69779e-05 5.25278e-23)
(0.0202738 -6.03705e-05 5.7594e-24)
(0.020367 -6.29787e-05 -1.10199e-22)
(0.0204573 -6.47714e-05 1.24813e-22)
(0.0205435 -6.56687e-05 0)
(0.0206236 -6.56747e-05 3.09271e-22)
(0.0206962 -6.46979e-05 0)
(0.0207593 -6.27868e-05 0)
(0.0208124 -6.00388e-05 0)
(0.0208549 -5.63361e-05 -1.57734e-22)
(0.0208866 -5.19705e-05 -1.19464e-24)
(0.0209098 -4.67399e-05 9.16799e-25)
(0.0209238 -4.0899e-05 -5.59152e-25)
(0.0209376 -3.49041e-05 -3.82184e-23)
(0.0209568 -2.97959e-05 -5.69495e-29)
(0.0224652 -1.92675e-05 3.44994e-26)
(0.0224158 -1.14763e-05 1.64757e-23)
(0.0223877 -2.66525e-06 7.44018e-23)
(0.0223419 6.66041e-06 -2.29078e-22)
(0.0222922 1.51421e-05 1.41652e-24)
(0.0222232 2.38695e-05 4.00793e-22)
(0.0221365 3.21334e-05 -4.8892e-22)
(0.022034 3.97342e-05 -5.82587e-22)
(0.0219156 4.67471e-05 6.67996e-22)
(0.021784 5.28962e-05 -5.26741e-25)
(0.0216415 5.82084e-05 0)
(0.0214906 6.25918e-05 8.71389e-22)
(0.0213332 6.61274e-05 2.9038e-23)
(0.021172 6.87475e-05 1.00532e-21)
(0.0210087 7.05322e-05 1.13471e-21)
(0.0208453 7.1509e-05 7.45848e-23)
(0.0206834 7.17603e-05 -1.28446e-21)
(0.0205241 7.13476e-05 1.25839e-21)
(0.0203691 7.03478e-05 -1.30139e-21)
(0.020219 6.88516e-05 1.33907e-21)
(0.0200749 6.68889e-05 -1.37247e-21)
(0.0199372 6.45705e-05 -7.00831e-22)
(0.0198063 6.19466e-05 1.4715e-21)
(0.0196827 5.90919e-05 1.06144e-24)
(0.0195667 5.60306e-05 -4.5284e-23)
(0.0194582 5.28348e-05 0)
(0.0193574 4.95574e-05 0)
(0.0192643 4.6211e-05 -7.48987e-22)
(0.0191788 4.28706e-05 -7.04432e-22)
(0.0191008 3.95314e-05 -9.4081e-23)
(0.0190303 3.62307e-05 4.69055e-23)
(0.0189669 3.29837e-05 7.52316e-22)
(0.0189106 2.98097e-05 -2.34708e-23)
(0.0188612 2.67193e-05 -3.50421e-22)
(0.0188184 2.37216e-05 0)
(0.018782 2.08127e-05 0)
(0.0187519 1.80236e-05 -7.56835e-22)
(0.0187278 1.53312e-05 -3.18502e-22)
(0.0187095 1.27446e-05 3.49302e-22)
(0.0186969 1.02475e-05 -1.11959e-23)
(0.0186898 7.87029e-06 1.09856e-23)
(0.018688 5.59121e-06 -1.85468e-22)
(0.0186914 3.40002e-06 1.8302e-22)