# vtk DataFile Version 2.0
track0
ASCII
DATASET POLYDATA
POINTS 12075 float
-0.0205 0.001 1e-05
-0.02052 0.000999985 1e-05
-0.02054 0.000999974 1e-05
-0.02056 0.000999965 1e-05
-0.02058 0.000999959 1e-05
-0.0206 0.000999956 1e-05
-0.0205 0.00367778 1e-05
-0.02052 0.00367778 1e-05
-0.02054 0.00367777 1e-05
-0.02056 0.00367777 1e-05
-0.02058 0.00367777 1e-05
-0.0206 0.00367777 1e-05
-0.0205 0.00635556 1e-05
-0.02052 0.00635555 1e-05
-0.02054 0.00635555 1e-05
-0.02056 0.00635555 1e-05
-0.02058 0.00635555 1e-05
-0.0206 0.00635555 1e-05
-0.0205 0.00903333 1e-05
-0.02052 0.00903333 1e-05
-0.02054 0.00903333 1e-05
-0.02056 0.00903333 1e-05
-0.02058 0.00903333 1e-05
-0.0206 0.00903333 1e-05
-0.0205 0.0117111 1e-05
-0.02052 0.0117111 1e-05
-0.02054 0.0117111 1e-05
-0.02056 0.0117111 1e-05
-0.02058 0.0117111 1e-05
-0.0206 0.0117111 1e-05
-0.0205 0.0143889 1e-05
-0.02052 0.0143889 1e-05
-0.02054 0.0143889 1e-05
-0.02056 0.0143889 1e-05
-0.02058 0.0143889 1e-05
-0.0206 0.0143889 1e-05
-0.0205 0.0170667 1e-05
-0.02052 0.0170667 1e-05
-0.02054 0.0170667 1e-05
-0.02056 0.0170667 1e-05
-0.02058 0.0170667 1e-05
-0.0206 0.0170667 1e-05
-0.0205 0.0197444 1e-05
-0.02052 0.0197444 1e-05
-0.02054 0.0197444 1e-05
-0.02056 0.0197444 1e-05
-0.02058 0.0197444 1e-05
-0.0206 0.0197444 1e-05
-0.0205 0.0224222 1e-05
-0.02052 0.0224222 1e-05
-0.02054 0.0224222 1e-05
-0.02056 0.0224222 1e-05
-0.02058 0.0224222 1e-05
-0.0206 0.0224222 1e-05
-0.0205 0.0251 1e-05
-0.02052 0.0250998 1e-05
-0.02054 0.0250997 1e-05
-0.02056 0.0250995 1e-05
-0.02058 0.0250995 1e-05
-0.0206 0.0250994 1e-05
-0.0205 0.001 1e-05
-0.0202034 0.00100022 1e-05
-0.0199069 0.00100067 1e-05
-0.0196103 0.00100132 1e-05
-0.0193137 0.00100219 1e-05
-0.0190172 0.00100326 1e-05
-0.0187132 0.00100467 1e-05
-0.0184093 0.00100589 1e-05
-0.0181054 0.0010071 1e-05
-0.0178015 0.00100832 1e-05
-0.0174976 0.00100954 1e-05
-0.0172058 0.00101083 1e-05
-0.016914 0.00101194 1e-05
-0.0166222 0.00101304 1e-05
-0.0163305 0.00101414 1e-05
-0.0160387 0.00101523 1e-05
-0.0157586 0.00101638 1e-05
-0.0154784 0.00101746 1e-05
-0.0151983 0.00101858 1e-05
-0.0149182 0.00101973 1e-05
-0.0146381 0.00102092 1e-05
-0.014376 0.0010221 1e-05
-0.0141139 0.00102328 1e-05
-0.0138518 0.0010245 1e-05
-0.0135897 0.00102574 1e-05
-0.0133685 0.00102682 1e-05
-0.0133535 0.00102689 1e-05
-0.0133385 0.00102697 1e-05
-0.0133234 0.00102704 1e-05
-0.0133084 0.00102712 1e-05
-0.0132934 0.00102719 1e-05
-0.0130353 0.00102848 1e-05
-0.0127771 0.00102979 1e-05
-0.0125189 0.00103111 1e-05
-0.0122607 0.00103245 1e-05
-0.0120025 0.00103381 1e-05
-0.0117547 0.00103512 1e-05
-0.0115068 0.00103644 1e-05
-0.0112589 0.00103777 1e-05
-0.0110111 0.0010391 1e-05
-0.0107632 0.00104043 1e-05
-0.0105252 0.00104172 1e-05
-0.0102873 0.001043 1e-05
-0.0100493 0.00104429 1e-05
-0.00981133 0.00104557 1e-05
-0.00957337 0.00104686 1e-05
-0.00934491 0.00104809 1e-05
-0.00911645 0.00104932 1e-05
-0.00888799 0.00105055 1e-05
-0.00865954 0.00105178 1e-05
-0.00843108 0.001053 1e-05
-0.00821175 0.00105417 1e-05
-0.00799242 0.00105534 1e-05
-0.00777309 0.00105651 1e-05
-0.00755376 0.00105767 1e-05
-0.00733443 0.00105883 1e-05
-0.00712387 0.00105994 1e-05
-0.0069133 0.00106104 1e-05
-0.00670273 0.00106215 1e-05
-0.00649216 0.00106325 1e-05
-0.0062816 0.00106435 1e-05
-0.00607944 0.00106539 1e-05
-0.00587729 0.00106644 1e-05
-0.00567514 0.00106749 1e-05
-0.00547298 0.00106853 1e-05
-0.00527083 0.00106958 1e-05
-0.00507675 0.00107057 1e-05
-0.00488267 0.00107156 1e-05
-0.0046886 0.00107256 1e-05
-0.00449452 0.00107355 1e-05
-0.00430044 0.00107455 1e-05
-0.00411412 0.0010755 1e-05
-0.0039278 0.00107645 1e-05
-0.00374147 0.00107741 1e-05
-0.00355515 0.00107836 1e-05
-0.00336883 0.00107932 1e-05
-0.00318995 0.00108023 1e-05
-0.00301107 0.00108116 1e-05
-0.00283219 0.00108209 1e-05
-0.00265331 0.00108302 1e-05
-0.00247443 0.00108396 1e-05
-0.0023027 0.00108487 1e-05
-0.00213097 0.00108578 1e-05
-0.00195924 0.00108671 1e-05
-0.00178751 0.00108765 1e-05
-0.00161577 0.0010886 1e-05
-0.0014509 0.00108951 1e-05
-0.00128603 0.00109045 1e-05
-0.00112116 0.00109141 1e-05
-0.00095629 0.00109239 1e-05
-0.000791418 0.00109339 1e-05
-0.000633135 0.00109438 1e-05
-0.000474851 0.0010954 1e-05
-0.000316568 0.00109645 1e-05
-0.000158285 0.00109753 1e-05
0 0.00109864 1e-05
0.000105677 0.00109939 1e-05
0.000211355 0.00110016 1e-05
0.000317032 0.00110093 1e-05
0.000422709 0.00110171 1e-05
0.000528387 0.0011025 1e-05
0.000634886 0.00110329 1e-05
0.000741385 0.00110407 1e-05
0.000847885 0.00110485 1e-05
0.000954384 0.00110562 1e-05
0.00106088 0.00110638 1e-05
0.00116821 0.00110713 1e-05
0.00127554 0.00110787 1e-05
0.00138286 0.0011086 1e-05
0.00149019 0.0011093 1e-05
0.00159752 0.00111 1e-05
0.00170568 0.00111068 1e-05
0.00181384 0.00111135 1e-05
0.001922 0.001112 1e-05
0.00203016 0.00111263 1e-05
0.00213833 0.00111325 1e-05
0.00224733 0.00111385 1e-05
0.00235633 0.00111445 1e-05
0.00246533 0.00111502 1e-05
0.00257434 0.00111559 1e-05
0.00268334 0.00111613 1e-05
0.00279319 0.00111666 1e-05
0.00290304 0.00111718 1e-05
0.00301289 0.00111769 1e-05
0.00312274 0.00111818 1e-05
0.00323259 0.00111866 1e-05
0.00334329 0.00111912 1e-05
0.003454 0.00111957 1e-05
0.0035647 0.00112001 1e-05
0.0036754 0.00112043 1e-05
0.00378611 0.00112084 1e-05
0.00389767 0.00112123 1e-05
0.00400924 0.00112162 1e-05
0.0041208 0.00112199 1e-05
0.00423237 0.00112235 1e-05
0.00434393 0.00112269 1e-05
0.00445636 0.00112301 1e-05
0.00456879 0.00112333 1e-05
0.00468123 0.00112364 1e-05
0.00479366 0.00112393 1e-05
0.00490609 0.0011242 1e-05
0.0050194 0.00112446 1e-05
0.0051327 0.00112471 1e-05
0.00524601 0.00112495 1e-05
0.00535932 0.00112518 1e-05
0.00547262 0.00112539 1e-05
0.00558681 0.00112558 1e-05
0.005701 0.00112577 1e-05
0.00581518 0.00112595 1e-05
0.00592937 0.00112611 1e-05
0.00604356 0.00112626 1e-05
0.00615863 0.00112639 1e-05
0.00627371 0.00112651 1e-05
0.00638878 0.00112663 1e-05
0.00650386 0.00112673 1e-05
0.00661893 0.00112682 1e-05
0.0067349 0.00112689 1e-05
0.00685087 0.00112695 1e-05
0.00696684 0.00112701 1e-05
0.00708281 0.00112705 1e-05
0.00719878 0.00112708 1e-05
0.00731565 0.00112709 1e-05
0.00743252 0.0011271 1e-05
0.00754939 0.00112709 1e-05
0.00766626 0.00112708 1e-05
0.00778313 0.00112705 1e-05
0.00790091 0.001127 1e-05
0.00801869 0.00112695 1e-05
0.00813647 0.00112689 1e-05
0.00825425 0.00112681 1e-05
0.00837203 0.00112673 1e-05
0.00843708 0.00112667 1e-05
0.00850212 0.00112661 1e-05
0.00856716 0.00112655 1e-05
0.00863221 0.00112649 1e-05
0.00869479 0.00112642 1e-05
0.00874894 0.00112636 1e-05
0.00880308 0.0011263 1e-05
0.00885722 0.00112624 1e-05
0.00891137 0.00112617 1e-05
0.00896551 0.0011261 1e-05
0.00908513 0.00112594 1e-05
0.00920475 0.00112577 1e-05
0.00932437 0.00112559 1e-05
0.00944398 0.0011254 1e-05
0.0095636 0.00112519 1e-05
0.00968415 0.00112497 1e-05
0.0098047 0.00112474 1e-05
0.00992525 0.0011245 1e-05
0.0100458 0.00112425 1e-05
0.0101663 0.00112399 1e-05
0.0102878 0.0011237 1e-05
0.0104093 0.00112341 1e-05
0.0105308 0.00112311 1e-05
0.0106523 0.0011228 1e-05
0.0107738 0.00112247 1e-05
0.0108962 0.00112213 1e-05
0.0110186 0.00112177 1e-05
0.0111411 0.00112141 1e-05
0.0112635 0.00112104 1e-05
0.0113859 0.00112065 1e-05
0.0115093 0.00112024 1e-05
0.0116327 0.00111982 1e-05
0.0117561 0.0011194 1e-05
0.0118795 0.00111896 1e-05
0.0120028 0.00111851 1e-05
0.0121272 0.00111804 1e-05
0.0122515 0.00111756 1e-05
0.0123759 0.00111706 1e-05
0.0125002 0.00111656 1e-05
0.0126245 0.00111604 1e-05
0.0127498 0.00111551 1e-05
0.0128752 0.00111496 1e-05
0.0130005 0.00111441 1e-05
0.0131258 0.00111384 1e-05
0.0132511 0.00111325 1e-05
0.0133774 0.00111265 1e-05
0.0135036 0.00111204 1e-05
0.0136299 0.00111141 1e-05
0.0137562 0.00111077 1e-05
0.0138825 0.00111012 1e-05
0.0140098 0.00110946 1e-05
0.014137 0.00110877 1e-05
0.0142643 0.00110808 1e-05
0.0143915 0.00110737 1e-05
0.0145188 0.00110665 1e-05
0.0146471 0.00110591 1e-05
0.0147753 0.00110516 1e-05
0.0149036 0.00110439 1e-05
0.0150318 0.00110361 1e-05
0.0151601 0.00110282 1e-05
0.0152893 0.00110202 1e-05
0.0154186 0.00110119 1e-05
0.0155478 0.00110035 1e-05
0.0156771 0.0010995 1e-05
0.0158063 0.00109863 1e-05
0.0159366 0.00109776 1e-05
0.0160668 0.00109686 1e-05
0.0161971 0.00109594 1e-05
0.0163273 0.00109501 1e-05
0.0164576 0.00109406 1e-05
0.0165889 0.00109312 1e-05
0.0167201 0.00109214 1e-05
0.0168514 0.00109115 1e-05
0.0169827 0.00109013 1e-05
0.0171139 0.00108911 1e-05
0.0172462 0.00108809 1e-05
0.0173785 0.00108704 1e-05
0.0175108 0.00108596 1e-05
0.0176431 0.00108487 1e-05
0.0177754 0.00108377 1e-05
0.0179087 0.00108267 1e-05
0.018042 0.00108153 1e-05
0.0181753 0.00108037 1e-05
0.0183087 0.00107919 1e-05
0.018442 0.00107801 1e-05
0.0185763 0.00107682 1e-05
0.0187107 0.0010756 1e-05
0.018845 0.00107435 1e-05
0.0189794 0.00107308 1e-05
0.0191137 0.00107181 1e-05
0.0192491 0.00107054 1e-05
0.0193845 0.00106923 1e-05
0.0195199 0.00106788 1e-05
0.0196553 0.00106652 1e-05
0.0197907 0.00106516 1e-05
0.0199272 0.0010638 1e-05
0.0200636 0.0010624 1e-05
0.0202001 0.00106096 1e-05
0.0203365 0.00105951 1e-05
0.020473 0.00105806 1e-05
0.0206105 0.00105661 1e-05
0.020748 0.00105511 1e-05
0.0208855 0.00105358 1e-05
0.021023 0.00105203 1e-05
0.0211606 0.00105049 1e-05
0.0212991 0.00104893 1e-05
0.0214377 0.00104734 1e-05
0.0215763 0.00104571 1e-05
0.0217149 0.00104405 1e-05
0.0218535 0.00104241 1e-05
0.0219931 0.00104075 1e-05
0.0221328 0.00103905 1e-05
0.0222724 0.00103731 1e-05
0.0224121 0.00103555 1e-05
0.0225517 0.0010338 1e-05
0.0226925 0.00103203 1e-05
0.0228332 0.00103023 1e-05
0.022974 0.00102838 1e-05
0.0231147 0.00102651 1e-05
0.0232555 0.00102464 1e-05
0.0233973 0.00102277 1e-05
0.0235391 0.00102084 1e-05
0.023681 0.00101888 1e-05
0.0238228 0.0010169 1e-05
0.0239647 0.00101492 1e-05
0.0241076 0.00101292 1e-05
0.0242505 0.00101088 1e-05
0.0243935 0.0010088 1e-05
0.0245364 0.0010067 1e-05
0.0246794 0.0010046 1e-05
0.0248234 0.00100248 1e-05
0.0249675 0.00100032 1e-05
0.0251115 0.000998122 1e-05
0.0252556 0.000995905 1e-05
[...]
POINT_DATA 12075
 FIELD attributes 2
p 1 12075 float
-5.69136 -5.68804 -5.68473 -5.68141 -5.6781 -5.67479
-5.84433 -5.84431 -5.84429 -5.84427 -5.84424 -5.84422
-6.01972 -6.0196 -6.01948 -6.01935 -6.01923 -6.01913
-6.11471 -6.11465 -6.1146 -6.11455 -6.11449 -6.11444
-6.16153 -6.16142 -6.1613 -6.16119 -6.16108 -6.16096
-6.16964 -6.16948 -6.16932 -6.16916 -6.169 -6.16883
-6.14404 -6.14397 -6.1439 -6.14383 -6.14376 -6.14368
-6.07544 -6.0754 -6.07536 -6.07532 -6.07528 -6.07524
-5.95474 -5.95475 -5.95475 -5.95476 -5.95477 -5.95477
-3.74234 -3.76167 -3.78087 -3.79994 -3.81888 -3.83768
-5.69136 -5.69063 -5.68699 -5.68327 -5.67947 -5.67106 -5.68483 -5.6997 -5.71458 -5.72946 -5.75377 -5.77539 -5.80516 -5.83493 -5.8647 -5.89727 -5.91272 -5.9342 -5.95569 -5.97718 -6.00028 -6.01879 -6.0393 -6.05982 -6.08034 -6.09766 -6.09884 -6.10001 -6.10118 -6.10235 -6.10351 -6.12481 -6.14609 -6.16738 -6.18867 -6.20968 -6.22798 -6.24607 -6.26417 -6.28226 -6.29978 -6.31481 -6.32956 -6.3443 -6.35904 -6.37321 -6.38624 -6.39898 -6.41173 -6.42448 -6.43675 -6.44851 -6.45995 -6.4714 -6.48284 -6.49382 -6.50441 -6.5146 -6.5248 -6.53499 -6.54472 -6.55411 -6.56309 -6.57207 -6.58105 -6.58961 -6.59789 -6.60565 -6.61342 -6.62118 -6.62857 -6.63571 -6.64233 -6.64895 -6.65557 -6.66204 -6.66818 -6.6734 -6.67862 -6.68385 -6.68904 -6.69442 -6.69964 -6.70486 -6.71008 -6.71664 -6.72384 -6.72973 -6.73562 -6.74151 -6.7489 -6.76015 -6.77679 -6.79343 -6.81007 -6.83209 -6.85609 -6.88752 -6.91895 -6.95037 -6.9816 -7.0114 -7.04298 -7.07456 -7.10613 -7.1332 -7.15391 -7.17378 -7.19365 -7.21353 -7.23168 -7.24523 -7.25776 -7.27029 -7.28282 -7.29509 -7.30604 -7.31544 -7.32485 -7.33426 -7.34277 -7.35202 -7.35956 -7.3671 -7.37464 -7.38075 -7.38805 -7.39374 -7.39942 -7.40511 -7.40939 -7.4145 -7.4183 -7.42211 -7.42591 -7.42875 -7.43202 -7.43429 -7.43656 -7.43884 -7.4406 -7.4426 -7.44384 -7.44507 -7.44631 -7.44733 -7.44875 -7.44957 -7.45039 -7.45121 -7.45189 -7.45316 -7.45395 -7.45474 -7.45552 -7.45614 -7.45729 -7.45804 -7.45879 -7.45954 -7.46011 -7.46102 -7.46164 -7.46226 -7.46288 -7.46338 -7.46419 -7.46484 -7.46549 -7.46615 -7.46676 -7.46735 -7.4679 -7.46845 -7.46899 -7.46952 -7.46997 -7.47042 -7.47088 -7.47133 -7.47197 -7.47323 -7.47468 -7.47613 -7.47758 -7.47964 -7.4809 -7.48273 -7.48455 -7.48637 -7.4892 -7.4904 -7.49252 -7.49464 -7.49676 -7.50024 -7.50143 -7.50385 -7.50628 -7.5087 -7.51281 -7.51407 -7.51682 -7.51957 -7.52232 -7.52702 -7.52847 -7.53159 -7.53471 -7.53784 -7.54309 -7.54484 -7.54837 -7.55189 -7.55541 -7.56116 -7.56331 -7.56724 -7.57116 -7.57509 -7.58124 -7.58384 -7.58814 -7.59243 -7.59674 -7.60316 -7.60631 -7.61084 -7.61546 -7.6203 -7.62667 -7.6304 -7.63507 -7.63995 -7.6452 -7.65151 -7.65575 -7.66057 -7.66566 -7.6712 -7.67745 -7.68213 -7.68713 -7.69239 -7.69814 -7.70434 -7.7094 -7.71462 -7.72006 -7.72598 -7.73214 -7.73753 -7.74297 -7.74858 -7.75454 -7.76059 -7.76616 -7.77174 -7.7774 -7.78328 -7.78917 -7.79479 -7.80042 -7.80606 -7.81183 -7.8176 -7.82323 -7.82886 -7.83446 -7.84011 -7.84576 -7.85133 -7.8569 -7.86241 -7.86788 -7.87335 -7.87876 -7.88418 -7.88952 -7.89475 -7.89998 -7.90515 -7.91033 -7.91543 -7.92039 -7.92535 -7.93022 -7.9351 -7.93992 -7.94456 -7.94921 -7.95373 -7.95825 -7.96274 -7.96705 -7.97133 -7.97545 -7.97956 -7.98363 -7.98756 -7.99143 -7.99508 -7.9987 -8.00229 -8.00578 -8.00919 -8.01233 -8.01543 -8.0185 -8.02151 -8.02442 -8.02705 -8.02962 -8.03217 -8.0347 -8.03704 -8.03919 -8.04118 -8.04316 -8.04515 -8.04683 -8.04837 -8.04968 -8.051 -8.05232 -8.05334 -8.05411 -8.05467 -8.05523 -8.0558 -8.05613 -8.05603 -8.05578 -8.05554 -8.0553 -8.05495 -8.05396 -8.05291 -8.05186 -8.05082 -8.04985 -8.04982 -8.04978 -8.04975 -8.04972 -8.04968 -8.04782 -8.04595 -8.04409 -8.04224 -8.0403 -8.03769 -8.03496 -8.03224 -8.02952 -8.02662 -8.02327 -8.01968 -8.01609 -8.01251 -8.00866 -8.00453 -8.00005 -7.99557 -7.9911 -7.98626 -7.98128 -7.97593 -7.97054 -7.96506 -7.9593 -7.95339 -7.94724 -7.94093 -7.93442 -7.92775 -7.92089 -7.91391 -7.90663 -7.89903 -7.89137 -7.88347 -7.87558 -7.86726 -7.85859 -7.84993 -7.84098 -7.83204 -7.82277 -7.81319 -7.80362 -7.79369 -7.78376 -7.77361 -7.7632 -7.75279 -7.74194 -7.7311 -7.7201 -7.7089 -7.69769 -7.68595 -7.67419 -7.66236 -7.65046 -7.63852 -7.62592 -7.61333 -7.60075 -7.58817 -7.57558 -7.56222 -7.54895 -7.53569 -7.52243 -7.50926 -7.49526 -7.48139 -7.46753 -7.45368 -7.43991 -7.42542 -7.41104 -7.39666 -7.38229 -7.36794 -7.36605 -7.36418 -7.36232 -7.36045 -7.35859 -7.34569 -7.33279 -7.3199 -7.30701 -7.29417 -7.27896 -7.26385 -7.24874 -7.23363 -7.21873 -7.20309 -7.18776 -7.17242 -7.15712 -7.14221 -7.12629 -7.11078 -7.0954 -7.08031 -7.06555 -7.04965 -7.03395 -7.01873 -7.00415 -6.98969 -6.97396 -6.95824 -6.94337 -6.92935 -6.91532 -6.8999 -6.88448 -6.87011 -6.85678 -6.84345 -6.82861 -6.81378 -6.80024 -6.78767 -6.77521 -6.76113 -6.74764 -6.73502 -6.72292 -6.71151 -6.6984 -6.68655 -6.67502 -6.66348 -6.65319 -6.64154 -6.63124 -6.62094 -6.61064 -6.60102 -6.59138 -6.58246 -6.57354 -6.56462 -6.55572 -6.55554 -6.55538 -6.55522 -6.55506 -6.55491 -6.54758 -6.54025 -6.53292 -6.52559 -6.51904 -6.51243 -6.50661 -6.50079 -6.49496 -6.49079 -6.48513 -6.48114 -6.47715 -6.47357 -6.47168 -6.46781 -6.465 -6.46295 -6.46213 -6.46217 -6.46027 -6.4586 -6.45854 -6.46046 -6.46244 -6.46254 -6.46265 -6.46466 -6.46854 -6.47241 -6.47451 -6.4766 -6.48047 -6.48623 -6.49199 -6.49608 -6.50027 -6.50609 -6.51343 -6.52103 -6.52709 -6.53379 -6.54143 -6.54988 -6.55927 -6.5673 -6.57631 -6.58569 -6.59521 -6.60621 -6.61604 -6.62702 -6.63798 -6.64893 -6.66108 -6.67283 -6.68524 -6.69764 -6.71003 -6.72305 -6.73645 -6.75012 -6.76378 -6.77743 -6.79126 -6.79849 -6.80577 -6.81305 -6.82034 -6.82803 -6.83535 -6.84268 -6.85 -6.85733 -6.8647 -6.88006 -6.89557 -6.91107 -6.92657 -6.94212 -6.95784 -6.97391 -6.98998 -7.00604 -7.02206 -7.03789 -7.05419 -7.07049 -7.08678 -7.10282 -7.11853 -7.1347 -7.15086 -7.16701 -7.18258 -7.19791 -7.21354 -7.22918 -7.2447 -7.25952 -7.27424 -7.289 -7.30378 -7.31821 -7.33194 -7.34569 -7.35937 -7.37299 -7.38597 -7.39837 -7.41089 -7.42331 -7.4355 -7.44663 -7.45737 -7.46832 -7.47922 -7.48968 -7.49861 -7.50743 -7.51656 -7.52569 -7.53389 -7.54038 -7.54688 -7.55378 -7.56069 -7.5662 -7.57004 -7.5739 -7.57824 -7.58258 -7.58501 -7.58578 -7.58655 -7.58788 -7.58922 -7.58818 -7.58552 -7.58286 -7.58084 -7.57824 -7.5734 -7.56739 -7.56085 -7.55503 -7.54757 -7.53869 -7.52926 -7.51847 -7.50846 -7.49547 -7.48215 -7.46883 -7.45371 -7.43804 -7.41988 -7.40172 -7.38356 -7.36463 -7.35229 -7.33896 -7.32562 -7.31228 -7.30061 -7.29045 -7.28029 -7.27013 -7.25997 -7.24902 -7.22129 -7.19288 -7.16448 -7.13608 -7.10484 -7.07307 -7.03874 -7.00442 -6.96901 -6.93048 -6.89284 -6.85416 -6.81357 -6.76923 -6.72422 -6.6801 -6.63598 -6.58805 -6.53629 -6.48445 -6.4335 -6.38164 -6.32598 -6.26867 -6.20976 -6.15173 -6.08915 -6.02626 -5.96335 -5.89907 -5.87788 -5.85537 -5.83286 -5.81035 -5.78917 -5.74207 -5.69497 -5.64789 -5.60081 -5.55069 -5.47725 -5.40095 -5.32466 -5.24606 -5.16431 -5.08374 -5.00318 -4.91839 -4.82932 -4.73999 -4.6518 -4.56174 -4.46829 -4.37469 -4.27782 -4.22327 -4.16594 -4.10843 -4.05091 -3.99857 -3.95486 -3.91116 -3.86747 -3.82359 -3.77742 -3.6736 -3.56727 -3.46098 -3.35162 -3.23961 -3.12902 -3.01845 -2.90406 -2.78574 -2.66687 -2.56984 -2.46984 -2.3689 -2.26797 -2.17875 -2.15539 -2.13202 -2.10866 -2.08506 -2.06072 -1.93541 -1.809 -1.68263 -1.55392 -1.42236 -1.29231 -1.16232 -1.02883 -0.893599 -0.756841 -0.687361 -0.616856 -0.545617 -0.474389 -0.407801 -0.34004 -0.272296 -0.20457 -0.136129 -0.0664242 0.0735036 0.213843 0.355485 0.499517 0.644616 0.771476 0.89922 1.02792 1.15656 1.2722 1.29185 1.3115 1.33115 1.35095 1.37092 1.51767 1.66477 1.81179 1.95981 2.10943 2.2576 2.40593 2.55458 2.70314 2.84638 2.84771 2.84904 2.85037 2.8517 2.85304 3.00216 3.1512 3.30014 3.44891 3.59898 3.74388 3.88841 4.03224 4.17598 4.30726 4.31386 4.32045 4.32705 4.33362 4.34019 4.48742 4.63452 4.78152 4.92721 5.07391 5.19304 5.31169 5.42887 5.54599 5.65606 5.68384 5.71161 5.73939 5.76687 5.7943 5.93661 6.07841 6.21977 6.35873 6.49886 6.58147 6.66371 6.74439 6.82504 6.90304 6.95954 7.01603 7.07251 7.12796 7.18329 7.31777 7.45218 7.58428 7.71416 7.84485 7.88936 7.93365 7.97674 8.01983 8.06244 8.14736 8.23227 8.31716 8.39951 8.48173 8.60398 8.72575 8.84332 8.96089 9.07666 9.07951 9.08235 9.08519 9.08794 9.09068 9.20873 9.32662 9.44451 9.55782 9.67091 9.73635 9.80159 9.8642 9.92681 9.9899 10.0367 10.0836 10.1304 10.1755 10.2202 10.3268 10.4335 10.5366 10.6379 10.7384 10.7579 10.7774 10.796 10.8147 10.8335 10.9134 10.9933 11.0733 11.1499 11.2256 11.3056 11.3852 11.4613 11.5375 11.6181 11.6309 11.6438 11.6566 11.6689 11.6812 11.7689 11.8558 11.9424 12.0251 12.1068 12.1579 12.2084 12.257 12.3055 12.3572 12.3867 12.4162 12.4458 12.4742 12.5022 12.578 12.6538 12.7275 12.7987 12.869 12.9095 12.9494 12.9879 13.0265 13.0681 13.0965 13.1249 13.1533 13.1809 13.2078 13.2724 13.3368 13.3998 13.4604 13.5203 13.5689 13.6164 13.6626 13.7089 13.7616 13.7707 13.7799 13.789 13.798 13.8067 13.8607 13.9142 13.9677 14.0197 14.0702 14.1198 14.1694 14.2168 14.2638 14.3099 14.3368 14.3628 14.3884 14.414 14.4427 14.46 14.4773 14.4946 14.5118 14.5283 14.5692 14.6095 14.6498 14.689 14.7273 14.7644 14.8015 14.8373 14.8723 14.907 14.9405 14.973 15.0051 15.0372 15.0689 15.0785 15.0878 15.097 15.1063 15.1161 15.1362 15.1562 15.1762 15.1962 15.2155 15.2424 15.2691 15.2957 15.3219 15.3475 15.3716 15.3957 15.4195 15.4425 15.4655 15.4871 15.5088 15.5296 15.5503 15.5709 15.5902 15.6091 15.6277 15.6464 15.6648 15.6819 15.6985 15.7152 15.7318 15.7484 15.7498 15.7513 15.7527 15.7541 15.7556 15.7692 15.7828 15.7963 15.8099 15.8232 15.8365 15.8499 15.8632 15.8765 15.8896 15.9013 15.9131 15.9249 15.9367 15.9483 15.9586 15.9689 15.9794 15.9897 16.0001 16.0091 16.0182 16.0274 16.0365 16.0457 16.0537 16.0617 16.0697 16.0778 16.086 16.0931 16.1001 16.1071 16.1143 16.1215 16.1278 16.134 16.1402 16.1465 16.153 16.1585 16.1641 16.1697 16.1752 16.1811 16.186 16.1911 16.1961 16.2012 16.2064 16.211 16.2157 16.2203 16.225 16.2298 16.2342 16.2387 16.2432 16.2477 16.2523 16.2553 16.2584 16.2614 16.2645 16.2682 16.2696 16.2709 16.2723 16.2737 16.2751 16.28 16.2849 16.2899 16.2948 16.2999 16.3055 16.3113 16.317 16.3227 16.3288 16.3356 16.3424 16.3492 16.356 16.3634 16.3719 16.3807 16.3895 16.3983 16.4087 16.419 16.4271 16.4352 16.4431 16.4515 16.4604 16.47 16.4796 16.4891 16.5012 16.5047 16.4997 16.4943 16.4886 16.4592 16.4217 16.3837 16.3455 16.3048 16.2598 16.2123 16.1673 16.1267 16.0897 16.0536 16.0156 15.9777 15.9401 15.9028 15.8654 15.8258 15.7861 15.7441 15.7 15.6558 15.6089 15.562 15.5138 15.4647 15.4156 15.3637 15.3116 15.2588 15.2057 15.1524 15.0962 15.0395 14.9821 14.9243 14.8658 14.8044 14.7419 14.6788 14.6156 14.5511 14.4834 14.4139 14.3444 14.2749 14.204 14.1289 14.0523 13.9756 13.899 13.8211 13.7378 13.6532 13.5686 13.484 13.3986 13.3059 13.2124 13.1189 13.0254 12.9317 12.9011 12.8703 12.8395 12.8087 12.776 12.7037 12.6315 12.5592 12.4869 12.4141 12.3 12.1852 12.0704 11.9556 11.8392 11.7134 11.5857 11.458 11.3303 11.1997 11.0607 10.9181 10.7755 10.6329 10.4858 10.3316 10.1723 10.0131 9.85387 9.68876 9.5181 9.33912 9.15975 8.97906 8.79077 8.59638 8.39771 8.19767 7.99576 7.78998 7.57745 7.35435 7.12323 6.88253 6.63239 6.37393 6.11852 5.86795 5.62268 5.38005 5.12923 4.86381 4.54349 4.16173 3.76925 3.36297 2.96069 2.6729 2.49834 2.32538 2.14612 1.96699 1.4977 0.748319 0