# vtk DataFile Version 2.0
track0
ASCII
DATASET POLYDATA
POINTS 12075 float
-0.0205 0.001 1e-05
-0.02052 0.000999985 1e-05
-0.02054 0.000999974 1e-05
-0.02056 0.000999965 1e-05
-0.02058 0.000999959 1e-05
-0.0206 0.000999956 1e-05
-0.0205 0.00367778 1e-05
-0.02052 0.00367778 1e-05
-0.02054 0.00367777 1e-05
-0.02056 0.00367777 1e-05
-0.02058 0.00367777 1e-05
-0.0206 0.00367777 1e-05
-0.0205 0.00635556 1e-05
-0.02052 0.00635555 1e-05
-0.02054 0.00635555 1e-05
-0.02056 0.00635555 1e-05
-0.02058 0.00635555 1e-05
-0.0206 0.00635555 1e-05
-0.0205 0.00903333 1e-05
-0.02052 0.00903333 1e-05
-0.02054 0.00903333 1e-05
-0.02056 0.00903333 1e-05
-0.02058 0.00903333 1e-05
-0.0206 0.00903333 1e-05
-0.0205 0.0117111 1e-05
-0.02052 0.0117111 1e-05
-0.02054 0.0117111 1e-05
-0.02056 0.0117111 1e-05
-0.02058 0.0117111 1e-05
-0.0206 0.0117111 1e-05
-0.0205 0.0143889 1e-05
-0.02052 0.0143889 1e-05
-0.02054 0.0143889 1e-05
-0.02056 0.0143889 1e-05
-0.02058 0.0143889 1e-05
-0.0206 0.0143889 1e-05
-0.0205 0.0170667 1e-05
-0.02052 0.0170667 1e-05
-0.02054 0.0170667 1e-05
-0.02056 0.0170667 1e-05
-0.02058 0.0170667 1e-05
-0.0206 0.0170667 1e-05
-0.0205 0.0197444 1e-05
-0.02052 0.0197444 1e-05
-0.02054 0.0197444 1e-05
-0.02056 0.0197444 1e-05
-0.02058 0.0197444 1e-05
-0.0206 0.0197444 1e-05
-0.0205 0.0224222 1e-05
-0.02052 0.0224222 1e-05
-0.02054 0.0224222 1e-05
-0.02056 0.0224222 1e-05
-0.02058 0.0224222 1e-05
-0.0206 0.0224222 1e-05
-0.0205 0.0251 1e-05
-0.02052 0.0250998 1e-05
-0.02054 0.0250997 1e-05
-0.02056 0.0250995 1e-05
-0.02058 0.0250995 1e-05
-0.0206 0.0250994 1e-05
-0.0205 0.001 1e-05
-0.0202034 0.00100022 1e-05
-0.0199069 0.00100067 1e-05
-0.0196103 0.00100132 1e-05
-0.0193137 0.00100219 1e-05
-0.0190172 0.00100326 1e-05
-0.0187132 0.00100467 1e-05
-0.0184093 0.00100589 1e-05
-0.0181054 0.0010071 1e-05
-0.0178015 0.00100832 1e-05
-0.0174976 0.00100954 1e-05
-0.0172058 0.00101083 1e-05
-0.016914 0.00101194 1e-05
-0.0166222 0.00101304 1e-05
-0.0163305 0.00101414 1e-05
-0.0160387 0.00101523 1e-05
-0.0157586 0.00101638 1e-05
-0.0154784 0.00101746 1e-05
-0.0151983 0.00101858 1e-05
-0.0149182 0.00101973 1e-05
-0.0146381 0.00102092 1e-05
-0.014376 0.0010221 1e-05
-0.0141139 0.00102328 1e-05
-0.0138518 0.0010245 1e-05
-0.0135897 0.00102574 1e-05
-0.0133685 0.00102682 1e-05
-0.0133535 0.00102689 1e-05
-0.0133385 0.00102697 1e-05
-0.0133234 0.00102704 1e-05
-0.0133084 0.00102712 1e-05
-0.0132934 0.00102719 1e-05
-0.0130353 0.00102848 1e-05
-0.0127771 0.00102979 1e-05
-0.0125189 0.00103111 1e-05
-0.0122607 0.00103245 1e-05
-0.0120025 0.00103381 1e-05
-0.0117547 0.00103512 1e-05
-0.0115068 0.00103644 1e-05
-0.0112589 0.00103777 1e-05
-0.0110111 0.0010391 1e-05
-0.0107632 0.00104043 1e-05
-0.0105252 0.00104172 1e-05
-0.0102873 0.001043 1e-05
-0.0100493 0.00104429 1e-05
-0.00981133 0.00104557 1e-05
-0.00957337 0.00104686 1e-05
-0.00934491 0.00104809 1e-05
-0.00911645 0.00104932 1e-05
-0.00888799 0.00105055 1e-05
-0.00865954 0.00105178 1e-05
-0.00843108 0.001053 1e-05
-0.00821175 0.00105417 1e-05
-0.00799242 0.00105534 1e-05
-0.00777309 0.00105651 1e-05
-0.00755376 0.00105767 1e-05
-0.00733443 0.00105883 1e-05
-0.00712387 0.00105994 1e-05
-0.0069133 0.00106104 1e-05
-0.00670273 0.00106215 1e-05
-0.00649216 0.00106325 1e-05
-0.0062816 0.00106435 1e-05
-0.00607944 0.00106539 1e-05
-0.00587729 0.00106644 1e-05
-0.00567514 0.00106749 1e-05
-0.00547298 0.00106853 1e-05
-0.00527083 0.00106958 1e-05
-0.00507675 0.00107057 1e-05
-0.00488267 0.00107156 1e-05
-0.0046886 0.00107256 1e-05
-0.00449452 0.00107355 1e-05
-0.00430044 0.00107455 1e-05
-0.00411412 0.0010755 1e-05
-0.0039278 0.00107645 1e-05
-0.00374147 0.00107741 1e-05
-0.00355515 0.00107836 1e-05
-0.00336883 0.00107932 1e-05
-0.00318995 0.00108023 1e-05
-0.00301107 0.00108116 1e-05
-0.00283219 0.00108209 1e-05
-0.00265331 0.00108302 1e-05
-0.00247443 0.00108396 1e-05
-0.0023027 0.00108487 1e-05
-0.00213097 0.00108578 1e-05
-0.00195924 0.00108671 1e-05
-0.00178751 0.00108765 1e-05
-0.00161577 0.0010886 1e-05
-0.0014509 0.00108951 1e-05
-0.00128603 0.00109045 1e-05
-0.00112116 0.00109141 1e-05
-0.00095629 0.00109239 1e-05
-0.000791418 0.00109339 1e-05
-0.000633135 0.00109438 1e-05
-0.000474851 0.0010954 1e-05
-0.000316568 0.00109645 1e-05
-0.000158285 0.00109753 1e-05
0 0.00109864 1e-05
0.000105677 0.00109939 1e-05
0.000211355 0.00110016 1e-05
0.000317032 0.00110093 1e-05
0.000422709 0.00110171 1e-05
0.000528387 0.0011025 1e-05
0.000634886 0.00110329 1e-05
0.000741385 0.00110407 1e-05
0.000847885 0.00110485 1e-05
0.000954384 0.00110562 1e-05
0.00106088 0.00110638 1e-05
0.00116821 0.00110713 1e-05
0.00127554 0.00110787 1e-05
0.00138286 0.0011086 1e-05
0.00149019 0.0011093 1e-05
0.00159752 0.00111 1e-05
0.00170568 0.00111068 1e-05
0.00181384 0.00111135 1e-05
0.001922 0.001112 1e-05
0.00203016 0.00111263 1e-05
0.00213833 0.00111325 1e-05
0.00224733 0.00111385 1e-05
0.00235633 0.00111445 1e-05
0.00246533 0.00111502 1e-05
0.00257434 0.00111559 1e-05
0.00268334 0.00111613 1e-05
0.00279319 0.00111666 1e-05
0.00290304 0.00111718 1e-05
0.00301289 0.00111769 1e-05
0.00312274 0.00111818 1e-05
0.00323259 0.00111866 1e-05
0.00334329 0.00111912 1e-05
0.003454 0.00111957 1e-05
0.0035647 0.00112001 1e-05
0.0036754 0.00112043 1e-05
0.00378611 0.00112084 1e-05
0.00389767 0.00112123 1e-05
0.00400924 0.00112162 1e-05
0.0041208 0.00112199 1e-05
0.00423237 0.00112235 1e-05
0.00434393 0.00112269 1e-05
0.00445636 0.00112301 1e-05
0.00456879 0.00112333 1e-05
0.00468123 0.00112364 1e-05
0.00479366 0.00112393 1e-05
0.00490609 0.0011242 1e-05
0.0050194 0.00112446 1e-05
0.0051327 0.00112471 1e-05
0.00524601 0.00112495 1e-05
0.00535932 0.00112518 1e-05
0.00547262 0.00112539 1e-05
0.00558681 0.00112558 1e-05
0.005701 0.00112577 1e-05
0.00581518 0.00112595 1e-05
0.00592937 0.00112611 1e-05
0.00604356 0.00112626 1e-05
0.00615863 0.00112639 1e-05
0.00627371 0.00112651 1e-05
0.00638878 0.00112663 1e-05
0.00650386 0.00112673 1e-05
0.00661893 0.00112682 1e-05
0.0067349 0.00112689 1e-05
0.00685087 0.00112695 1e-05
0.00696684 0.00112701 1e-05
0.00708281 0.00112705 1e-05
0.00719878 0.00112708 1e-05
0.00731565 0.00112709 1e-05
0.00743252 0.0011271 1e-05
0.00754939 0.00112709 1e-05
0.00766626 0.00112708 1e-05
0.00778313 0.00112705 1e-05
0.00790091 0.001127 1e-05
0.00801869 0.00112695 1e-05
0.00813647 0.00112689 1e-05
0.00825425 0.00112681 1e-05
0.00837203 0.00112673 1e-05
0.00843708 0.00112667 1e-05
0.00850212 0.00112661 1e-05
0.00856716 0.00112655 1e-05
0.00863221 0.00112649 1e-05
0.00869479 0.00112642 1e-05
0.00874894 0.00112636 1e-05
0.00880308 0.0011263 1e-05
0.00885722 0.00112624 1e-05
0.00891137 0.00112617 1e-05
0.00896551 0.0011261 1e-05
0.00908513 0.00112594 1e-05
0.00920475 0.00112577 1e-05
0.00932437 0.00112559 1e-05
0.00944398 0.0011254 1e-05
0.0095636 0.00112519 1e-05
0.00968415 0.00112497 1e-05
0.0098047 0.00112474 1e-05
0.00992525 0.0011245 1e-05
0.0100458 0.00112425 1e-05
0.0101663 0.00112399 1e-05
0.0102878 0.0011237 1e-05
0.0104093 0.00112341 1e-05
0.0105308 0.00112311 1e-05
0.0106523 0.0011228 1e-05
0.0107738 0.00112247 1e-05
0.0108962 0.00112213 1e-05
0.0110186 0.00112177 1e-05
0.0111411 0.00112141 1e-05
0.0112635 0.00112104 1e-05
0.0113859 0.00112065 1e-05
0.0115093 0.00112024 1e-05
0.0116327 0.00111982 1e-05
0.0117561 0.0011194 1e-05
0.0118795 0.00111896 1e-05
0.0120028 0.00111851 1e-05
0.0121272 0.00111804 1e-05
0.0122515 0.00111756 1e-05
0.0123759 0.00111706 1e-05
0.0125002 0.00111656 1e-05
0.0126245 0.00111604 1e-05
0.0127498 0.00111551 1e-05
0.0128752 0.00111496 1e-05
0.0130005 0.00111441 1e-05
0.0131258 0.00111384 1e-05
0.0132511 0.00111325 1e-05
0.0133774 0.00111265 1e-05
0.0135036 0.00111204 1e-05
0.0136299 0.00111141 1e-05
0.0137562 0.00111077 1e-05
0.0138825 0.00111012 1e-05
0.0140098 0.00110946 1e-05
0.014137 0.00110877 1e-05
0.0142643 0.00110808 1e-05
0.0143915 0.00110737 1e-05
0.0145188 0.00110665 1e-05
0.0146471 0.00110591 1e-05
0.0147753 0.00110516 1e-05
0.0149036 0.00110439 1e-05
0.0150318 0.00110361 1e-05
0.0151601 0.00110282 1e-05
0.0152893 0.00110202 1e-05
0.0154186 0.00110119 1e-05
0.0155478 0.00110035 1e-05
0.0156771 0.0010995 1e-05
0.0158063 0.00109863 1e-05
0.0159366 0.00109776 1e-05
0.0160668 0.00109686 1e-05
0.0161971 0.00109594 1e-05
0.0163273 0.00109501 1e-05
0.0164576 0.00109406 1e-05
0.0165889 0.00109312 1e-05
0.0167201 0.00109214 1e-05
0.0168514 0.00109115 1e-05
0.0169827 0.00109013 1e-05
0.0171139 0.00108911 1e-05
0.0172462 0.00108809 1e-05
0.0173785 0.00108704 1e-05
0.0175108 0.00108596 1e-05
0.0176431 0.00108487 1e-05
0.0177754 0.00108377 1e-05
0.0179087 0.00108267 1e-05
0.018042 0.00108153 1e-05
0.0181753 0.00108037 1e-05
0.0183087 0.00107919 1e-05
0.018442 0.00107801 1e-05
0.0185763 0.00107682 1e-05
0.0187107 0.0010756 1e-05
0.018845 0.00107435 1e-05
0.0189794 0.00107308 1e-05
0.0191137 0.00107181 1e-05
0.0192491 0.00107054 1e-05
0.0193845 0.00106923 1e-05
0.0195199 0.00106788 1e-05
0.0196553 0.00106652 1e-05
0.0197907 0.00106516 1e-05
0.0199272 0.0010638 1e-05
0.0200636 0.0010624 1e-05
0.0202001 0.00106096 1e-05
0.0203365 0.00105951 1e-05
0.020473 0.00105806 1e-05
0.0206105 0.00105661 1e-05
0.020748 0.00105511 1e-05
0.0208855 0.00105358 1e-05
0.021023 0.00105203 1e-05
0.0211606 0.00105049 1e-05
0.0212991 0.00104893 1e-05
0.0214377 0.00104734 1e-05
0.0215763 0.00104571 1e-05
0.0217149 0.00104405 1e-05
0.0218535 0.00104241 1e-05
0.0219931 0.00104075 1e-05
0.0221328 0.00103905 1e-05
0.0222724 0.00103731 1e-05
0.0224121 0.00103555 1e-05
0.0225517 0.0010338 1e-05
0.0226925 0.00103203 1e-05
0.0228332 0.00103023 1e-05
0.022974 0.00102838 1e-05
0.0231147 0.00102651 1e-05
0.0232555 0.00102464 1e-05
0.0233973 0.00102277 1e-05
0.0235391 0.00102084 1e-05
0.023681 0.00101888 1e-05
0.0238228 0.0010169 1e-05
0.0239647 0.00101492 1e-05
0.0241076 0.00101292 1e-05
0.0242505 0.00101088 1e-05
0.0243935 0.0010088 1e-05
0.0245364 0.0010067 1e-05
0.0246794 0.0010046 1e-05
0.0248234 0.00100248 1e-05
0.0249675 0.00100032 1e-05
0.0251115 0.000998122 1e-05
0.0252556 0.000995905 1e-05
[...]
POINT_DATA 12075
 FIELD attributes 1
U 3 12075 float
10.0004 	0.00731912 	0 10.0004 	0.00585529 	0 10.0003 	0.00439147 	0 10.0002 	0.00292765 	0 10.0001 	0.00146382 	0 10 	0 	0
10.0001 	0.000883831 	0 10 	0.000707065 	0 10 	0.000530299 	0 10 	0.000353532 	0 10 	0.000176766 	0 10 	0 	0
10.0001 	0.000472161 	0 10.0001 	0.000377549 	0 10.0001 	0.000282937 	0 10 	0.000188325 	0 10 	9.37126e-05 	0 10 	0 	0
10 	0.000274874 	0 10 	0.000219899 	0 10 	0.000164924 	0 10 	0.00010995 	0 10 	5.49748e-05 	0 10 	0 	0
10 	8.90332e-05 	0 10 	7.12266e-05 	0 10 	5.34199e-05 	0 10 	3.56133e-05 	0 10 	1.78066e-05 	0 10 	0 	0
10 	-1.85058e-05 	0 10 	-1.48046e-05 	0 10 	-1.11035e-05 	0 10 	-7.40231e-06 	0 10 	-3.70115e-06 	0 10 	0 	0
10 	-0.000210727 	0 10 	-0.000168581 	0 10 	-0.000126436 	0 10 	-8.42906e-05 	0 10 	-4.21453e-05 	0 10 	0 	0
10 	-0.000374271 	0 10 	-0.000299416 	0 10 	-0.000224562 	0 10 	-0.000149708 	0 10 	-7.48541e-05 	0 10 	0 	0
9.99999 	-0.000425433 	0 9.99999 	-0.000340347 	0 9.99999 	-0.00025526 	0 10 	-0.000170173 	0 10 	-8.50867e-05 	0 10 	0 	0
9.17387 	0.0870994 	0 9.1308 	0.0696795 	0 9.08741 	0.0522594 	0 9.04368 	0.034839 	0 8.99962 	0.0174185 	0 8.95524 	0 	0
10.0004 	0.00731912 	0 10.0024 	0.0151722 	0 10.0045 	0.0221939 	0 10.0065 	0.0291713 	0 10.0085 	0.0361048 	0 10.0135 	0.0463224 	0 10.0163 	0.040225 	0 10.0207 	0.0401871 	0 10.0251 	0.0401494 	0 10.0296 	0.0401119 	0 10.0355 	0.0445752 	0 10.0384 	0.0379412 	0 10.0424 	0.0379022 	0 10.0463 	0.0378631 	0 10.0503 	0.037824 	0 10.0544 	0.0409273 	0 10.0566 	0.0388589 	0 10.059 	0.0401748 	0 10.0614 	0.0414923 	0 10.0638 	0.0428116 	0 10.066 	0.0452726 	0 10.0675 	0.0453895 	0 10.0688 	0.046594 	0 10.0701 	0.0477996 	0 10.0714 	0.0490063 	0 10.0725 	0.0500259 	0 10.0725 	0.0500955 	0 10.0726 	0.0501651 	0 10.0727 	0.0502348 	0 10.0728 	0.0503044 	0 10.0729 	0.0503636 	0 10.0733 	0.0510024 	0 10.0738 	0.0516345 	0 10.0743 	0.0522671 	0 10.0748 	0.0529003 	0 10.0753 	0.0533685 	0 10.0751 	0.0536803 	0 10.0747 	0.0538858 	0 10.0743 	0.0540915 	0 10.0739 	0.0542973 	0 10.0734 	0.0542642 	0 10.0729 	0.054431 	0 10.0717 	0.0544287 	0 10.0706 	0.0544264 	0 10.0694 	0.054424 	0 10.0678 	0.0541527 	0 10.0674 	0.0542633 	0 10.0657 	0.0541593 	0 10.064 	0.0540553 	0 10.0623 	0.0539512 	0 10.0597 	0.0535621 	0 10.0596 	0.053659 	0 10.0575 	0.0535066 	0 10.0554 	0.0533541 	0 10.0532 	0.0532017 	0 10.0496 	0.0527535 	0 10.0501 	0.0528685 	0 10.0477 	0.0527097 	0 10.0452 	0.0525509 	0 10.0428 	0.052392 	0 10.038 	0.0519326 	0 10.0394 	0.0520973 	0 10.0367 	0.0519645 	0 10.034 	0.0518316 	0 10.0313 	0.0516987 	0 10.0254 	0.0512569 	0 10.0277 	0.0514975 	0 10.0249 	0.0514322 	0 10.022 	0.051367 	0 10.0191 	0.0513018 	0 10.012 	0.0509321 	0 10.0154 	0.0512938 	0 10.0124 	0.0513287 	0 10.0094 	0.0513636 	0 10.0064 	0.0513985 	0 9.99793 	0.0511199 	0 10.0026 	0.0516624 	0 9.99955 	0.0519466 	0 9.99649 	0.0522309 	0 9.99343 	0.0525153 	0 9.98375 	0.0525407 	0 9.98984 	0.0534341 	0 9.98676 	0.0539908 	0 9.98368 	0.0545476 	0 9.9806 	0.0551046 	0 9.96961 	0.0553053 	0 9.97733 	0.0565778 	0 9.97461 	0.0579774 	0 9.9719 	0.0593771 	0 9.9692 	0.0607771 	0 9.95737 	0.0619896 	0 9.96739 	0.0641181 	8.63094e-22 9.96632 	0.0660425 	6.973e-21 9.96527 	0.0679672 	1.30805e-20 9.96423 	0.0698921 	1.91855e-20 9.95281 	0.0709388 	1.57234e-20 9.96517 	0.0723399 	1.19105e-19 9.96512 	0.072957 	1.11299e-19 9.96507 	0.0735741 	1.03501e-19 9.96502 	0.0741912 	9.57126e-20 9.95355 	0.073805 	-1.93259e-20 9.9665 	0.0735169 	-5.2951e-20 9.96647 	0.0726883 	-5.86762e-20 9.96643 	0.0718596 	-6.43961e-20 9.96639 	0.071031 	-7.01107e-20 9.95449 	0.0699179 	-2.48066e-20 9.96701 	0.0688855 	-2.21441e-20 9.966 	0.0673361 	-1.51758e-20 9.96498 	0.0657867 	-8.20898e-21 9.96395 	0.0642371 	-1.24361e-21 9.95102 	0.0626727 	9.88061e-21 9.96304 	0.0617075 	-4.33421e-21 9.96107 	0.0600624 	-2.68632e-20 9.95909 	0.0584171 	-4.93973e-20 9.9571 	0.0567716 	-7.19363e-20 9.94313 	0.054898 	-1.05556e-19 9.95482 	0.0542186 	-1.61334e-19 9.95206 	0.052736 	-1.46524e-19 9.94929 	0.0512531 	-1.31697e-19 9.94651 	0.0497697 	-1.16854e-19 9.93161 	0.0477648 	-3.51277e-20 9.94298 	0.0472479 	5.76607e-20 9.93948 	0.0458817 	7.42134e-20 9.93597 	0.0445151 	9.07451e-20 9.93245 	0.043148 	1.07256e-19 9.91669 	0.0411165 	4.37629e-20 9.92767 	0.0406273 	-8.38764e-20 9.92341 	0.0393141 	-9.14793e-20 9.91915 	0.0380004 	-9.90496e-20 9.91488 	0.0366863 	-1.06588e-19 9.89832 	0.0347093 	-2.58947e-22 9.90877 	0.0342227 	1.01981e-19 9.90374 	0.0329462 	9.08542e-20 9.89871 	0.0316693 	7.9696e-20 9.89366 	0.0303919 	6.85058e-20 9.87638 	0.028495 	-2.98296e-20 9.88612 	0.0280056 	-1.12144e-19 9.88032 	0.026755 	-1.39186e-19 9.87451 	0.0255038 	-1.66216e-19 9.86869 	0.0242521 	-1.93234e-19 9.85087 	0.0224334 	-1.56299e-19 9.85961 	0.0219671 	-1.98395e-19 9.85306 	0.0207633 	-1.83322e-19 9.84651 	0.019559 	-1.68239e-19 9.83995 	0.0183541 	-1.53147e-19 9.82186 	0.0166219 	-9.3675e-20 9.82923 	0.0161985 	-8.13019e-20 9.822 	0.0150604 	-5.88968e-20 9.81476 	0.0139216 	-3.64953e-20 9.8075 	0.0127823 	-1.40975e-20 9.78958 	0.0111449 	4.57231e-21 9.79511 	0.0107442 	0 9.78725 	0.00966766 	0 9.77937 	0.00859043 	0 9.77147 	0.00751254 	0 9.75422 	0.00597886 	0 9.75737 	0.00555534 	-1.63523e-20 9.74891 	0.00452789 	-3.9245e-20 9.74043 	0.00349972 	-6.21409e-20 9.73194 	0.00247083 	-8.50401e-20 9.71594 	0.00106036 	-1.11058e-19 9.7161 	0.000563276 	-1.28109e-19 9.70708 	-0.000423611 	-1.28715e-19 9.69805 	-0.00141127 	-1.2931e-19 9.689 	-0.00239969 	-1.29896e-19 9.6749 	-0.00365396 	-1.19751e-19 9.67145 	-0.00427126 	-6.94754e-20 9.66192 	-0.00521992 	-3.44421e-20 9.65238 	-0.00616939 	5.73664e-22 9.64281 	-0.00711968 	3.55717e-20 9.63129 	-0.00817637 	6.40584e-20 9.62813 	-0.00854969 	6.872e-20 9.62266 	-0.00905169 	6.87621e-20 9.61718 	-0.00955396 	6.88007e-20 9.61169 	-0.0100565 	6.88358e-20 9.60641 	-0.0105403 	6.8866e-20 9.60179 	-0.0109623 	6.93669e-20 9.59715 	-0.0113845 	6.9867e-20 9.59252 	-0.0118068 	7.03663e-20 9.58788 	-0.0122294 	7.08648e-20 9.58024 	-0.012772 	7.19203e-20 9.5724 	-0.0135701 	5.71358e-20 9.56186 	-0.0144711 	4.23492e-20 9.5513 	-0.0153731 	2.75606e-20 9.54073 	-0.016276 	1.27699e-20 9.52109 	-0.0175013 	-6.04852e-22 9.51828 	-0.0181106 	-1.20505e-20 9.50738 	-0.0189942 	-2.60898e-20 9.49645 	-0.0198788 	-4.01271e-20 9.4855 	-0.0207645 	-5.41624e-20 9.46023 	-0.0220913 	-6.82082e-20 9.4618 	-0.0225887 	-7.10348e-20 9.45055 	-0.0234605 	-7.94562e-20 9.43929 	-0.0243333 	-8.78722e-20 9.42801 	-0.0252073 	-9.62827e-20 9.39802 	-0.0265584 	-1.14693e-19 9.40325 	-0.0270239 	-1.58985e-19 9.39172 	-0.0278886 	-1.47767e-19 9.38017 	-0.0287544 	-1.36572e-19 9.3686 	-0.0296213 	-1.25399e-19 9.33481 	-0.0309193 	-4.76484e-20 9.34302 	-0.0314267 	-3.17675e-20 9.33124 	-0.0322868 	-2.2571e-20 9.31944 	-0.033148 	-1.33732e-20 9.30762 	-0.0340104 	-4.17408e-21 9.27092 	-0.0351821 	0 9.28144 	-0.0357977 	0 9.26945 	-0.0366554 	0 9.25744 	-0.0375142 	0 9.2454 	-0.0383743 	0 9.20663 	-0.0393562 	0 9.21884 	-0.0401366 	2.65452e-21 9.20668 	-0.0409956 	1.10999e-20 9.19448 	-0.0418558 	1.9544e-20 9.18226 	-0.0427174 	2.79868e-20 9.14217 	-0.0434606 	4.78846e-20 9.15555 	-0.0444552 	1.76075e-19 9.14323 	-0.0453183 	1.8002e-19 9.13089 	-0.0461828 	1.83989e-19 9.11852 	-0.0470486 	1.87985e-19 9.07776 	-0.0475102 	4.82197e-20 9.09184 	-0.0487523 	2.62813e-20 9.07941 	-0.0496245 	1.84329e-20 9.06695 	-0.0504979 	1.0583e-20 9.05431 	-0.0513689 	2.86136e-21 9.0136 	-0.051532 	1.89085e-20 9.02659 	-0.0530253 	1.2238e-19 9.01547 	-0.0539429 	1.30117e-19 9.00292 	-0.0548281 	1.32266e-19 8.98717 	-0.0555942 	1.1944e-19 8.94984 	-0.0555414 	4.52169e-21 8.96003 	-0.0572125 	-1.17354e-19 8.95167 	-0.0582561 	-1.49687e-19 8.93904 	-0.0591574 	-1.6158e-19 8.92091 	-0.0597771 	-1.50217e-19 8.88663 	-0.0595656 	-7.04391e-20 8.89432 	-0.0614088 	-2.08851e-19 8.88819 	-0.0626275 	-2.5564e-19 8.87551 	-0.0635525 	-2.59252e-19 8.85562 	-0.0639915 	-2.04254e-19 8.8241 	-0.0636454 	-5.47245e-20 8.8296 	-0.0656237 	-2.87629e-20 8.82524 	-0.0670414 	-1.23524e-20 8.81254 	-0.0679839 	-4.03428e-21 8.7914 	-0.068207 	0 8.76235 	-0.0677519 	0 8.76589 	-0.069807 	0 8.76293 	-0.0714276 	0 8.7502 	-0.0723921 	0 8.72828 	-0.0724089 	2.49999e-21 8.70144 	-0.0719164 	6.34255e-21 8.70328 	-0.0740779 	2.71252e-21 8.70141 	-0.0759477 	0 8.68868 	-0.0769488 	0 8.66636 	-0.0767439 	3.03873e-21 8.64149 	-0.0762172 	6.88745e-21 8.64187 	-0.0784956 	3.25828e-21 8.64086 	-0.0806489 	7.53527e-22 8.62817 	-0.0816786 	8.15122e-21 8.60571 	-0.0812012 	2.86805e-20 8.58255 	-0.0806135 	5.01683e-20 8.58169 	-0.0829415 	1.97224e-19 8.58074 	-0.0852722 	3.44283e-19 8.568 	-0.0862569 	3.44942e-19 8.54631 	-0.0856514 	1.97977e-19 8.52463 	-0.0850454 	5.1009e-20 8.52269 	-0.0873799 	2.99232e-20 8.52067 	-0.089717 	8.84009e-21 8.50853 	-0.0906844 	8.38348e-22 8.48815 	-0.0901232 	4.52115e-21 8.46778 	-0.0895618 	8.20381e-21 8.4649 	-0.0919243 	4.75138e-21 8.46194 	-0.0942892 	1.30052e-21 8.45045 	-0.0952579 	-1.37524e-22 8.43121 	-0.0947553 	-4.4259e-21 8.41199 	-0.0942524 	-8.71351e-21 8.4083 	-0.0966671 	-5.94824e-20 8.40453 	-0.0990842 	-1.10259e-19 8.39368 	-0.100057 	-1.1293e-19 8.37544 	-0.0995909 	-6.66406e-20 8.35721 	-0.0991242 	-2.03495e-20 8.35281 	-0.101562 	9.42466e-20 8.34833 	-0.104002 	2.08832e-19 8.33812 	-0.104971 	2.20305e-19 8.32075 	-0.104546 	1.2445e-19 8.30338 	-0.10412 	2.85938e-20 8.29835 	-0.10654 	1.50821e-20 8.29324 	-0.108961 	1.56399e-21 8.28367 	-0.109931 	-4.78089e-21 8.26707 	-0.109594 	7.29436e-22 8.25046 	-0.109258 	6.24037e-21 8.24486 	-0.111677 	-6.72212e-22 8.23905 	-0.114042 	-7.84253e-21 8.22973 	-0.114977 	-2.13869e-20 8.21432 	-0.114804 	-7.55306e-20 8.19838 	-0.114537 	-1.33159e-19 8.19226 	-0.116927 	-2.83207e-19 8.18543 	-0.119015 	-3.95823e-19 8.17617 	-0.119975 	-3.69766e-19 8.16245 	-0.120088 	-2.36686e-19 8.1471 	-0.119891 	-6.44936e-20 8.1405 	-0.12222 	7.84141e-20 8.13286 	-0.124034 	1.63982e-19 8.12365 	-0.125044 	1.60553e-19 8.1114 	-0.125484 	1.0363e-19 8.09656 	-0.125432 	7.90883e-22 8.08952 	-0.127811 	-1.0084e-19 8.08122 	-0.129444 	-1.495e-19 8.07199 	-0.130529 	-1.59126e-19 8.061 	-0.131259 	-1.35667e-19 8.04662 	-0.131293 	-4.73753e-20 8.03921 	-0.133727 	-3.50552e-20 8.03038 	-0.135162 	-2.28177e-20 8.02109 	-0.136289 	-1.06076e-20 8.01114 	-0.137276 	3.054e-21 7.99708 	-0.137333 	2.63601e-20 7.98925 	-0.139736 	1.05087e-21 7.98001 	-0.140938 	-6.23375e-21 7.97067 	-0.142089 	-1.27391e-20 7.96128 	-0.143241 	-1.9246e-20 7.94792 	-0.143448 	-4.24625e-21 7.93961 	-0.145655 	-2.18583e-20 7.93026 	-0.146841 	-2.89444e-20 7.92086 	-0.148029 	-3.60355e-20 7.91142 	-0.149217 	-4.31317e-20 7.89916 	-0.149708 	-6.20938e-20 7.89041 	-0.151687 	1.57265e-20 7.88099 	-0.152919 	1.6962e-20 7.87152 	-0.154152 	1.81643e-20 7.862 	-0.155386 	1.93336e-20 7.85067 	-0.156166 	-2.87912e-20 7.84154 	-0.157924 	1.57587e-20 7.83201 	-0.1592 	1.75368e-20 7.82243 	-0.160476 	1.92845e-20 7.8128 	-0.161752 	2.10016e-20 7.80229 	-0.16281 	2.4461e-21 7.79301 	-0.164322 	-1.94085e-22 7.78355 	-0.165602 	-1.46885e-22 7.77405 	-0.166883 	-9.97004e-23 7.76449 	-0.168165 	-5.25308e-23 7.75555 	-0.169359 	-8.61108e-24 7.7552 	-0.169404 	-6.80419e-24 7.75485 	-0.169449 	-4.9973e-24 7.75451 	-0.169493 	-3.19038e-24 7.75416 	-0.169538 	-1.38344e-24 7.75385 	-0.169575 	0 7.74379 	-0.170925 	0 7.73369 	-0.172267 	0 7.72353 	-0.173611 	0 7.71332 	-0.174955 	0 7.70424 	-0.176057 	0 7.69363 	-0.177671 	0 7.68334 	-0.179049 	0 7.67299 	-0.180427 	0 7.66259 	-0.181807 	0 7.65444 	-0.182713 	0 7.64327 	-0.184579 	0 7.63278 	-0.185979 	0 7.62223 	-0.187381 	0 7.61162 	-0.188783 	0 7.60436 	-0.189485 	0 7.59262 	-0.191588 	0 7.58191 	-0.193004 	0 7.57115 	-0.19442 	0 7.56034 	-0.195837 	0 7.55393 	-0.196346 	0 7.54174 	-0.198603 	0 7.53064 	-0.200124 	0 7.51963 	-0.201555 	0 7.5097 	-0.202756 	0 7.50297 	-0.203297 	0 7.49054 	-0.205554 	0 7.47879 	-0.207326 	-5.66639e-21 7.46751 	-0.208761 	-1.52502e-20 7.45844 	-0.209735 	-2.48542e-20 7.45136 	-0.210295 	-3.44779e-20 7.43868 	-0.212541 	-2.37132e-20 7.42627 	-0.214559 	-1.56535e-20 7.41469 	-0.215996 	-1.44703e-20 7.40645 	-0.216745 	-2.20233e-20 7.399 	-0.217328 	-3.16979e-20 7.38607 	-0.219576 	-2.08328e-20 7.37305 	-0.221825 	-9.96154e-21 7.36145 	-0.223217 	0 7.3536 	-0.223808 	0 7.34573 	-0.2244 	0 7.33251 	-0.226651 	0 7.31922 	-0.228903 	0 7.30807 	-0.230313 	-2.86237e-21 7.2998 	-0.230892 	-7.4014e-21 7.2915 	-0.231473 	-1.19399e-20 7.27805 	-0.233709 	-4.49439e-20 7.26452 	-0.235947 	-7.79445e-20 7.25382 	-0.237367 	-8.2917e-20 7.24505 	-0.237926 	-6.64951e-20 7.23624 	-0.238486 	-5.0067e-20 7.22248 	-0.240689 	-2.53082e-20 7.20864 	-0.242893 	-5.35239e-22 7.19844 	-0.244275 	-9.16372e-21 7.18918 	-0.244857 	-3.08967e-20 7.17994 	-0.245397 	-5.3297e-20 7.16592 	-0.247554 	-6.54266e-20 7.15289 	-0.24947 	-7.36666e-20 7.14237 	-0.250807 	-7.25504e-20 7.1323 	-0.251668 	-5.42572e-20 7.12255 	-0.252199 	-2.40839e-20 7.10815 	-0.254307 	-2.08928e-20 7.09588 	-0.255917 	-1.46169e-20 7.08495 	-0.257213 	-6.39371e-21 7.07416 	-0.258333 	0 7.06401 	-0.258833 	0 7.04926 	-0.260879 	0 7.03777 	-0.262165 	0 7.02645 	-0.263402 	0 7.01508 	-0.264639 	0 7.00438 	-0.265205 	0 6.99022 	-0.266963 	0 6.97859 	-0.268131 	0 6.9669 	-0.269299 	0 6.95517 	-0.270469 	0 6.94378 	-0.271278 	-6.53751e-21 6.93049 	-0.272688 	6.21231e-23 6.91848 	-0.273782 	1.63849e-22 6.90642 	-0.274877 	2.6561e-22 6.89432 	-0.275973 	3.67407e-22 6.88221 	-0.277029 	6.1341e-22 6.8805 	-0.277192 	1.60181e-21 6.87895 	-0.277319 	1.3216e-21 6.8774 	-0.277446 	1.04122e-21 6.87584 	-0.277573 	7.6066e-22 6.8743 	-0.277699 	4.81824e-22 6.86325 	-0.278593 	-1.50337e-21 6.85217 	-0.279488 	-3.49734e-21 6.84105 	-0.280383 	-5.50013e-21 6.82989 	-0.281279 	-7.51179e-21 6.82015 	-0.281947 	1.67398e-21 6.80655 	-0.283147 	4.27531e-21 6.79355 	-0.284083 	1.03551e-20 6.7805 	-0.285019 	1.64323e-20 6.76741 	-0.285957 	2.25067e-20 6.75743 	-0.286401 	2.88128e-20 6.7427 	-0.287828 	2.26149e-20 6.72935 	-0.288675 	2.15451e-20 6.71595 	-0.289524 	2.04704e-20 6.70281 	-0.290326 	1.94168e-20 6.69395 	-0.29044 	1.87434e-20 6.67855 	-0.291906 	1.73065e-20 6.66442 	-0.292826 	1.56354e-20 6.65069 	-0.293561 	1.38825e-20 6.63899 	-0.293957 	1.39011e-20 6.62984 	-0.293925 	1.6143e-20 6.61412 	-0.295247 	1.23952e-20 6.59888 	-0.296357 	9.44838e-21 6.58488 	-0.296956 	8.42748e-21 6.57476 	-0.296914 	1.04233e-20 6.56543 	-0.296739 	1.30459e-20 6.54947 	-0.297918 	8.93713e-21 6.53344 	-0.299098 	4.82382e-21 6.51994 	-0.29952 	-6.582e-22 6.51045 	-0.299215 	-3.70829e-21 6.50096 	-0.298911 	-6.75882e-21 6.48474 	-0.299967 	-4.19199e-21 6.46847 	-0.301023 	-1.62659e-21 6.45579 	-0.301328 	0 6.4462 	-0.300859 	0 6.43661 	-0.30039 	0 6.42022 	-0.301287 	0 6.4038 	-0.302182 	-1.07532e-23 6.3922 	-0.30226 	-2.5483e-21 6.38238 	-0.301693 	-5.09518e-21 6.37276 	-0.301052 	-7.64324e-21 6.35626 	-0.301781 	-5.50958e-21 6.34171 	-0.302174 	-4.4077e-21 6.3301 	-0.302065 	-4.83689e-21 6.31934 	-0.301653 	-4.34697e-21 6.30977 	-0.300831 	-2.62243e-21 6.29322 	-0.301384 	-2.33983e-20 6.28067 	-0.301253 	-2.63947e-20 6.26912 	-0.300952 	-2.49844e-20 6.25755 	-0.300652 	-2.35732e-20 6.24801 	-0.299682 	-6.76501e-22 6.23252 	-0.299882 	-2.02754e-20 6.2211 	-0.299385 	-1.91948e-20 6.20967 	-0.298888 	-1.81139e-20 6.19824 	-0.29839 	-1.70329e-20 6.18786 	-0.297558 	-7.57099e-21 6.17455 	-0.297217 	-6.45455e-21 6.16332 	-0.29652 	-2.58793e-21 6.1521 	-0.295822 	1.27871e-21 6.14088 	-0.295124 	5.14536e-21 6.12969 	-0.294419 	9.02775e-21 6.12941 	-0.294407 	9.00702e-21 6.12918 	-0.294388 	9.05333e-21 6.12894 	-0.294369 	9.09963e-21 6.12871 	-0.29435 	9.14594e-21 6.12847 	-0.294331 	9.19226e-21 6.11746 	-0.293478 	1.16489e-20 6.10645 	-0.292625 	1.41047e-20 6.09546 	-0.291773 	1.65597e-20 6.08447 	-0.29092 	1.90137e-20 6.07492 	-0.289746 	1.31604e-20 6.06352 	-0.288964 	1.30152e-20 6.05261 	-0.287903 	1.07537e-20 6.04171 	-0.286842 	8.49306e-21 6.03083 	-0.285781 	6.23326e-21 6.02288 	-0.284068 	4.21338e-21 6.01136 	-0.283361 	5.18515e-21 6.00086 	-0.282106 	3.33403e-21 5.99038 	-0.28085 	1.4833e-21 5.98065 	-0.279432 	6.05249e-22 5.97388 	-0.277358 	3.65557e-21 5.96277 	-0.276466 	1.0825e-21 5.9523 	-0.275251 	7.24932e-22 5.9423 	-0.273801 	1.97654e-21 5.93451 	-0.271875 	6.77414e-21 5.92827 	-0.269616 	1.40393e-20 5.91768 	-0.268518 	1.84174e-20 5.90724 	-0.267355 	2.24908e-20 5.8978 	-0.265731 	2.4364e-20 5.89197 	-0.263345 	1.9091e-20 5.8863 	-0.260937 	1.36147e-20 5.87629 	-0.259662 	1.84016e-20 5.86631 	-0.258387 	2.31884e-20 5.85839 	-0.256517 	2.2984e-20 5.85326 	-0.253994 	1.76864e-20 5.8482 	-0.251472 	1.23892e-20 5.83883 	-0.25005 	1.70317e-20 5.8295 	-0.248627 	2.16742e-20 5.82303 	-0.246577 	2.08133e-20 5.81853 	-0.243969 	1.28216e-20 5.8141 	-0.241362 	4.82781e-21 5.80543 	-0.239817 	3.73319e-21 5.797 	-0.238231 	2.56735e-21 5.7919 	-0.235999 	3.39835e-22 5.78787 	-0.2334 	-3.44207e-21 5.78408 	-0.230735 	-7.50638e-21 5.77613 	-0.229092 	-2.8112e-21 5.76958 	-0.22719 	-8.09405e-22 5.76513 	-0.224902 	-2.82677e-21 5.76128 	-0.22243 	-6.18982e-21 5.75814 	-0.219745 	-1.11162e-20 5.75093 	-0.218036 	2.01883e-21 5.74616 	-0.215896 	5.03725e-21 5.74235 	-0.213594 	4.24524e-21 5.73872 	-0.211258 	2.44144e-21 5.73621 	-0.2086 	-8.57963e-21 5.72986 	-0.20685 	-5.78049e-21 5.72664 	-0.204581 	-3.9988e-21 5.72347 	-0.202313 	-2.21574e-21 5.72035 	-0.200045 	-4.313e-22 5.71818 	-0.197541 	0 5.71348 	-0.195675 	0 5.71088 	-0.193486 	0 5.70833 	-0.191298 	0 5.70583 	-0.189111 	0 5.70389 	-0.186805 	0 5.7007 	-0.184907 	3.17199e-23 5.69869 	-0.182843 	8.37079e-23 5.69673 	-0.18078 	1.35664e-22 5.69482 	-0.178717 	1.87587e-22 5.69313 	-0.176624 	1.29383e-22 5.69204 	-0.175735 	3.34538e-22 5.69131 	-0.174799 	-6.78197e-22 5.6906 	-0.173864 	-1.68968e-21 5.6899 	-0.172929 	-2.69992e-21 5.68917 	-0.171941 	-3.76608e-21 5.68855 	-0.17099 	-4.69306e-21 5.68795 	-0.17004 	-5.6193e-21 5.68736 	-0.16909 	-6.54482e-21 5.68678 	-0.16814 	-7.4696e-21 5.68631 	-0.167149 	-7.30872e-21 5.68555 	-0.165488 	-8.20826e-21 5.68477 	-0.163804 	-7.23791e-21 5.68402 	-0.162121 	-6.26152e-21 5.68332 	-0.160439 	-5.2791e-21 5.68289 	-0.158657 	9.51504e-22 5.68273 	-0.157293 	5.90455e-21 5.6824 	-0.155878 	8.0754e-21 5.6821 	-0.154463 	1.02413e-20 5.68184 	-0.153048 	1.24021e-20 5.68191 	-0.151504 	4.96862e-21 5.6823 	-0.150473 	1.16881e-21 5.68235 	-0.149383 	-2.1718e-21 5.68244 	-0.148295 	-5.51023e-21 5.68255 	-0.147207 	-8.8465e-21 5.68299 	-0.14599 	-1.22289e-20 5.68387 	-0.145334 	-2.01034e-20 5.68424 	-0.144638 	-2.08003e-20 5.68464 	-0.143942 	-2.14938e-20 5.68505 	-0.143247 	-2.21837e-20 5.68574 	-0.142448 	-9.88186e-21 5.68703 	-0.142214 	-4.5904e-21 5.68769 	-0.141968 	-1.47834e-21 5.68832 	-0.141722 	1.54941e-21 5.68899 	-0.141466 	4.35128e-21 5.68981 	-0.141155 	5.87599e-21 5.69133 	-0.141376 	1.65332e-20 5.69233 	-0.1416 	1.9423e-20 5.69315 	-0.141824 	1.98096e-20 5.69398 	-0.142032 	1.63958e-20 5.69486 	-0.142209 	5.60915e-21 5.69656 	-0.142883 	3.97089e-21 5.69785 	-0.143574 	2.35266e-21 5.69879 	-0.144277 	7.50744e-22 5.6997 	-0.144973 	-1.70585e-21 5.70057 	-0.145661 	-4.91645e-21 5.70239 	-0.146816 	-1.95579e-21 5.70392 	-0.147991 	0 5.70492 	-0.149208 	0 5.70579 	-0.150447 	-2.35702e-21 5.70658 	-0.151694 	-5.59889e-21 5.70844 	-0.153379 	-2.62108e-21 5.71016 	-0.155072 	1.81163e-22 5.71113 	-0.156834 	1.6989e-21 5.71183 	-0.158649 	6.33994e-21 5.71248 	-0.160466 	1.12122e-20 5.71429 	-0.162698 	1.9281e-20 5.71605 	-0.164929 	2.73508e-20 5.71696 	-0.167246 	2.75574e-20 5.71742 	-0.169638 	2.04576e-20 5.71783 	-0.172029 	1.3359e-20 5.71951 	-0.174814 	1.43176e-20 5.72113 	-0.177597 	1.52784e-20 5.72196 	-0.180474 	1.21623e-20 5.72213 	-0.183444 	4.92761e-21 5.72222 	-0.186411 	-2.30563e-21 5.72369 	-0.189757 	-1.45176e-20 5.72508 	-0.193099 	-2.67266e-20 5.72574 	-0.196544 	-2.87889e-20 5.72553 	-0.200093 	-1.89976e-20 5.72523 	-0.203639 	-9.20845e-21 5.7264 	-0.20755 	7.45566e-21 5.72747 	-0.211457 	2.41151e-20 5.72789 	-0.215477 	2.3