# vtk DataFile Version 2.0
track0
ASCII
DATASET POLYDATA
POINTS 114 float
-0.0205 0.001 1e-05
-0.02052 0.001 1e-05
-0.02054 0.001 1e-05
-0.02056 0.001 1e-05
-0.02058 0.001 1e-05
-0.0206 0.001 1e-05
-0.0205 0.00367778 1e-05
-0.02052 0.00367778 1e-05
-0.02054 0.00367778 1e-05
-0.02056 0.00367778 1e-05
-0.02058 0.00367778 1e-05
-0.0206 0.00367778 1e-05
-0.0205 0.00635556 1e-05
-0.02052 0.00635556 1e-05
-0.02054 0.00635556 1e-05
-0.02056 0.00635556 1e-05
-0.02058 0.00635556 1e-05
-0.0206 0.00635556 1e-05
-0.0205 0.00903333 1e-05
-0.02052 0.00903333 1e-05
-0.02054 0.00903333 1e-05
-0.02056 0.00903333 1e-05
-0.02058 0.00903333 1e-05
-0.0206 0.00903333 1e-05
-0.0205 0.0117111 1e-05
-0.02052 0.0117111 1e-05
-0.02054 0.0117111 1e-05
-0.02056 0.0117111 1e-05
-0.02058 0.0117111 1e-05
-0.0206 0.0117111 1e-05
-0.0205 0.0143889 1e-05
-0.02052 0.0143889 1e-05
-0.02054 0.0143889 1e-05
-0.02056 0.0143889 1e-05
-0.02058 0.0143889 1e-05
-0.0206 0.0143889 1e-05
-0.0205 0.0170667 1e-05
-0.02052 0.0170667 1e-05
-0.02054 0.0170667 1e-05
-0.02056 0.0170667 1e-05
-0.02058 0.0170667 1e-05
-0.0206 0.0170667 1e-05
-0.0205 0.0197444 1e-05
-0.02052 0.0197444 1e-05
-0.02054 0.0197444 1e-05
-0.02056 0.0197444 1e-05
-0.02058 0.0197444 1e-05
-0.0206 0.0197444 1e-05
-0.0205 0.0224222 1e-05
-0.02052 0.0224222 1e-05
-0.02054 0.0224222 1e-05
-0.02056 0.0224222 1e-05
-0.02058 0.0224222 1e-05
-0.0206 0.0224222 1e-05
-0.0205 0.0251 1e-05
-0.02052 0.0251 1e-05
-0.02054 0.0251 1e-05
-0.02056 0.0251 1e-05
-0.02058 0.0251 1e-05
-0.0206 0.0251 1e-05
-0.0205 0.001 1e-05
-0.0202034 0.001 1e-05
-0.0199069 0.001 1e-05
-0.0196103 0.001 1e-05
-0.0193137 0.001 1e-05
-0.0190172 0.001 1e-05
-0.0205 0.00367778 1e-05
-0.0202034 0.00367778 1e-05
-0.0199069 0.00367778 1e-05
-0.0196103 0.00367778 1e-05
-0.0193137 0.00367778 1e-05
-0.0205 0.00635556 1e-05
-0.0202034 0.00635556 1e-05
-0.0199069 0.00635556 1e-05
-0.0196103 0.00635556 1e-05
-0.0193137 0.00635556 1e-05
-0.0190172 0.00635556 1e-05
-0.0205 0.00903333 1e-05
-0.0202034 0.00903333 1e-05
-0.0199069 0.00903333 1e-05
-0.0196103 0.00903333 1e-05
-0.0205 0.0117111 1e-05
-0.0202034 0.0117111 1e-05
-0.0199069 0.0117111 1e-05
-0.0196103 0.0117111 1e-05
-0.0193137 0.0117111 1e-05
-0.0205 0.0143889 1e-05
-0.0202034 0.0143889 1e-05
-0.0199069 0.0143889 1e-05
-0.0196103 0.0143889 1e-05
-0.0193137 0.0143889 1e-05
-0.0205 0.0170667 1e-05
-0.0202034 0.0170667 1e-05
-0.0199069 0.0170667 1e-05
-0.0196103 0.0170667 1e-05
-0.0193137 0.0170667 1e-05
-0.0190172 0.0170667 1e-05
-0.0205 0.0197444 1e-05
-0.0202034 0.0197444 1e-05
-0.0199069 0.0197444 1e-05
-0.0196103 0.0197444 1e-05
-0.0193137 0.0197444 1e-05
-0.0190172 0.0197444 1e-05
-0.0205 0.0224222 1e-05
-0.0202034 0.0224222 1e-05
-0.0199069 0.0224222 1e-05
-0.0196103 0.0224222 1e-05
-0.0193137 0.0224222 1e-05
-0.0190172 0.0224222 1e-05
-0.0205 0.0251 1e-05
-0.0202034 0.0251 1e-05
-0.0199069 0.0251 1e-05
-0.0196103 0.0251 1e-05
-0.0193137 0.0251 1e-05
LINES 20 134
6 0 1 2 3 4 5
6 6 7 8 9 10 11
6 12 13 14 15 16 17
6 18 19 20 21 22 23
6 24 25 26 27 28 29
6 30 31 32 33 34 35
6 36 37 38 39 40 41
6 42 43 44 45 46 47
6 48 49 50 51 52 53
6 54 55 56 57 58 59
6 60 61 62 63 64 65
5 66 67 68 69 70
6 71 72 73 74 75 76
4 77 78 79 80
5 81 82 83 84 85
5 86 87 88 89 90
6 91 92 93 94 95 96
6 97 98 99 100 101 102
6 103 104 105 106 107 108
5 109 110 111 112 113
POINT_DATA 114
 FIELD attributes 1
U 3 114 float
8.73645 	0 	0 8.98916 	0 	0 9.24187 	0 	0 9.49458 	0 	0 9.74729 	0 	0 10 	0 	0
8.73645 	0 	0 8.98916 	0 	0 9.24187 	0 	0 9.49458 	0 	0 9.74729 	0 	0 10 	0 	0
9.3488 	0 	0 9.47516 	0 	0 9.60151 	0 	0 9.72787 	0 	0 9.85423 	0 	0 10 	0 	0
8.73645 	0 	0 8.98916 	0 	0 9.24187 	0 	0 9.49458 	0 	0 9.74729 	0 	0 10 	0 	0
8.73645 	0 	0 8.98916 	0 	0 9.24187 	0 	0 9.49458 	0 	0 9.74729 	0 	0 10 	0 	0
8.73645 	0 	0 8.98916 	0 	0 9.24187 	0 	0 9.49458 	0 	0 9.74729 	0 	0 10 	0 	0
8.73645 	0 	0 8.98916 	0 	0 9.24187 	0 	0 9.49458 	0 	0 9.74729 	0 	0 10 	0 	0
8.73645 	0 	0 8.98916 	0 	0 9.24187 	0 	0 9.49458 	0 	0 9.74729 	0 	0 10 	0 	0
8.73645 	0 	0 8.98916 	0 	0 9.24187 	0 	0 9.49458 	0 	0 9.74729 	0 	0 10 	0 	0
7.91844 	0 	0 8.1248 	0 	0 8.33116 	0 	0 8.53752 	0 	0 8.74388 	0 	0 8.95023 	0 	0
8.73645 	0 	0 6.76237 	0 	0 4.88873 	0 	0 3.01508 	0 	0 1.14144 	0 	0 0 	0 	0
8.73645 	0 	0 4.98916 	0 	0 2.56647 	0 	0 0.692828 	0 	0 0 	0 	0
9.3488 	0 	0 7.47516 	0 	0 5.60151 	0 	0 3.72787 	0 	0 1.85423 	0 	0 0 	0 	0
8.73645 	0 	0 4.98916 	0 	0 1.82462 	0 	0 0 	0 	0
8.73645 	0 	0 4.98916 	0 	0 2.16398 	0 	0 0.290335 	0 	0 0 	0 	0
8.73645 	0 	0 4.98916 	0 	0 1.91454 	0 	0 0.040898 	0 	0 0 	0 	0
8.73645 	0 	0 6.4997 	0 	0 4.62606 	0 	0 2.75241 	0 	0 0.878766 	0 	0 0 	0 	0
8.73645 	0 	0 6.72004 	0 	0 4.84639 	0 	0 2.97275 	0 	0 1.0991 	0 	0 0 	0 	0
8.73645 	0 	0 5.69254 	0 	0 3.81889 	0 	0 1.94525 	0 	0 0.0716031 	0 	0 0 	0 	0
7.91844 	0 	0 4.85846 	0 	0 2.75924 	0 	0 0.885598 	0 	0 0 	0 	0
