# vtk DataFile Version 2.0
track0
ASCII
DATASET POLYDATA
POINTS 114 float
-0.0205 0.001 1e-05
-0.02052 0.001 1e-05
-0.02054 0.001 1e-05
-0.02056 0.001 1e-05
-0.02058 0.001 1e-05
-0.0206 0.001 1e-05
-0.0205 0.00367778 1e-05
-0.02052 0.00367778 1e-05
-0.02054 0.00367778 1e-05
-0.02056 0.00367778 1e-05
-0.02058 0.00367778 1e-05
-0.0206 0.00367778 1e-05
-0.0205 0.00635556 1e-05
-0.02052 0.00635556 1e-05
-0.02054 0.00635556 1e-05
-0.02056 0.00635556 1e-05
-0.02058 0.00635556 1e-05
-0.0206 0.00635556 1e-05
-0.0205 0.00903333 1e-05
-0.02052 0.00903333 1e-05
-0.02054 0.00903333 1e-05
-0.02056 0.00903333 1e-05
-0.02058 0.00903333 1e-05
-0.0206 0.00903333 1e-05
-0.0205 0.0117111 1e-05
-0.02052 0.0117111 1e-05
-0.02054 0.0117111 1e-05
-0.02056 0.0117111 1e-05
-0.02058 0.0117111 1e-05
-0.0206 0.0117111 1e-05
-0.0205 0.0143889 1e-05
-0.02052 0.0143889 1e-05
-0.02054 0.0143889 1e-05
-0.02056 0.0143889 1e-05
-0.02058 0.0143889 1e-05
-0.0206 0.0143889 1e-05
-0.0205 0.0170667 1e-05
-0.02052 0.0170667 1e-05
-0.02054 0.0170667 1e-05
-0.02056 0.0170667 1e-05
-0.02058 0.0170667 1e-05
-0.0206 0.0170667 1e-05
-0.0205 0.0197444 1e-05
-0.02052 0.0197444 1e-05
-0.02054 0.0197444 1e-05
-0.02056 0.0197444 1e-05
-0.02058 0.0197444 1e-05
-0.0206 0.0197444 1e-05
-0.0205 0.0224222 1e-05
-0.02052 0.0224222 1e-05
-0.02054 0.0224222 1e-05
-0.02056 0.0224222 1e-05
-0.02058 0.0224222 1e-05
-0.0206 0.0224222 1e-05
-0.0205 0.0251 1e-05
-0.02052 0.0251 1e-05
-0.02054 0.0251 1e-05
-0.02056 0.0251 1e-05
-0.02058 0.0251 1e-05
-0.0206 0.0251 1e-05
-0.0205 0.001 1e-05
-0.0202034 0.001 1e-05
-0.0199069 0.001 1e-05
-0.0196103 0.001 1e-05
-0.0193137 0.001 1e-05
-0.0190172 0.001 1e-05
-0.0205 0.00367778 1e-05
-0.0202034 0.00367778 1e-05
-0.0199069 0.00367778 1e-05
-0.0196103 0.00367778 1e-05
-0.0193137 0.00367778 1e-05
-0.0205 0.00635556 1e-05
-0.0202034 0.00635556 1e-05
-0.0199069 0.00635556 1e-05
-0.0196103 0.00635556 1e-05
-0.0193137 0.00635556 1e-05
-0.0190172 0.00635556 1e-05
-0.0205 0.00903333 1e-05
-0.0202034 0.00903333 1e-05
-0.0199069 0.00903333 1e-05
-0.0196103 0.00903333 1e-05
-0.0205 0.0117111 1e-05
-0.0202034 0.0117111 1e-05
-0.0199069 0.0117111 1e-05
-0.0196103 0.0117111 1e-05
-0.0193137 0.0117111 1e-05
-0.0205 0.0143889 1e-05
-0.0202034 0.0143889 1e-05
-0.0199069 0.0143889 1e-05
-0.0196103 0.0143889 1e-05
-0.0193137 0.0143889 1e-05
-0.0205 0.0170667 1e-05
-0.0202034 0.0170667 1e-05
-0.0199069 0.0170667 1e-05
-0.0196103 0.0170667 1e-05
-0.0193137 0.0170667 1e-05
-0.0190172 0.0170667 1e-05
-0.0205 0.0197444 1e-05
-0.0202034 0.0197444 1e-05
-0.0199069 0.0197444 1e-05
-0.0196103 0.0197444 1e-05
-0.0193137 0.0197444 1e-05
-0.0190172 0.0197444 1e-05
-0.0205 0.0224222 1e-05
-0.0202034 0.0224222 1e-05
-0.0199069 0.0224222 1e-05
-0.0196103 0.0224222 1e-05
-0.0193137 0.0224222 1e-05
-0.0190172 0.0224222 1e-05
-0.0205 0.0251 1e-05
-0.0202034 0.0251 1e-05
-0.0199069 0.0251 1e-05
-0.0196103 0.0251 1e-05
-0.0193137 0.0251 1e-05
LINES 20 134
6 0 1 2 3 4 5
6 6 7 8 9 10 11
6 12 13 14 15 16 17
6 18 19 20 21 22 23
6 24 25 26 27 28 29
6 30 31 32 33 34 35
6 36 37 38 39 40 41
6 42 43 44 45 46 47
6 48 49 50 51 52 53
6 54 55 56 57 58 59
6 60 61 62 63 64 65
5 66 67 68 69 70
6 71 72 73 74 75 76
4 77 78 79 80
5 81 82 83 84 85
5 86 87 88 89 90
6 91 92 93 94 95 96
6 97 98 99 100 101 102
6 103 104 105 106 107 108
5 109 110 111 112 113
POINT_DATA 114
 FIELD attributes 2
p 1 114 float
0 0 0 0 0 0
0 0 0 0 0 0
0 0 0 0 0 0
0 0 0 0 0 0
0 0 0 0 0 0
0 0 0 0 0 0
0 0 0 0 0 0
0 0 0 0 0 0
0 0 0 0 0 0
0 0 0 0 0 0
0 0 0 0 0 0
0 0 0 0 0
0 0 0 0 0 0
0 0 0 0
0 0 0 0 0
0 0 0 0 0
0 0 0 0 0 0
0 0 0 0 0 0
0 0 0 0 0 0
0 0 0 0 0
k 1 114 float
0.375 0.375 0.375 0.375 0.375 0.375
0.375 0.375 0.375 0.375 0.375 0.375
0.375 0.375 0.375 0.375 0.375 0.375
0.375 0.375 0.375 0.375 0.375 0.375
0.375 0.375 0.375 0.375 0.375 0.375
0.375 0.375 0.375 0.375 0.375 0.375
0.375 0.375 0.375 0.375 0.375 0.375
0.375 0.375 0.375 0.375 0.375 0.375
0.375 0.375 0.375 0.375 0.375 0.375
0.375 0.375 0.375 0.375 0.375 0.375
0.375 0.375 0.375 0.375 0.375 0.375
0.375 0.375 0.375 0.375 0.375
0.375 0.375 0.375 0.375 0.375 0.375
0.375 0.375 0.375 0.375
0.375 0.375 0.375 0.375 0.375
0.375 0.375 0.375 0.375 0.375
0.375 0.375 0.375 0.375 0.375 0.375
0.375 0.375 0.375 0.375 0.375 0.375
0.375 0.375 0.375 0.375 0.375 0.375
0.375 0.375 0.375 0.375 0.375
