/*--------------------------------*- C++ -*----------------------------------*\
  =========                 |
  \\      /  F ield         | OpenFOAM: The Open Source CFD Toolbox
   \\    /   O peration     | Website:  https://openfoam.org
    \\  /    A nd           | Version:  8
     \\/     M anipulation  |
\*---------------------------------------------------------------------------*/
FoamFile
{
    version     2.0;
    format      ascii;
    class       surfaceScalarField;
    location    "42";
    object      phi;
}
// * * * * * * * * * * * * * * * * * * * * * * * * * * * * * * * * * * * * * //

dimensions      [0 3 -1 0 0 0 0];

internalField   nonuniform List<scalar> 
3120
(
2.34473e-11
-2.34898e-11
3.23037e-11
-8.8595e-12
3.9334e-12
2.83658e-11
-6.53272e-11
6.92558e-11
-1.71522e-10
1.0619e-10
-3.08103e-10
1.36576e-10
-4.68034e-10
1.59927e-10
-6.44696e-10
1.76658e-10
-8.32197e-10
1.87496e-10
-1.02538e-09
1.93175e-10
-1.21966e-09
1.94284e-10
-1.41088e-09
1.91213e-10
-1.59505e-09
1.84165e-10
-1.76825e-09
1.73191e-10
-1.9265e-09
1.58254e-10
-2.0658e-09
1.39295e-10
-2.18211e-09
1.16301e-10
-2.27149e-09
8.9375e-11
-2.33028e-09
5.87858e-11
-2.3553e-09
2.50189e-11
-2.3441e-09
-1.1198e-11
-2.29522e-09
-4.88853e-11
-2.2084e-09
-8.68244e-11
-2.08481e-09
-1.23595e-10
-1.92718e-09
-1.57637e-10
-1.73985e-09
-1.87335e-10
-1.52873e-09
-2.11121e-10
-1.30114e-09
-2.27587e-10
-1.06554e-09
-2.35603e-10
-8.31127e-10
-2.3442e-10
-6.07374e-10
-2.23757e-10
-4.03518e-10
-2.03858e-10
-2.27991e-10
-1.7553e-10
-8.78376e-11
-1.40156e-10
1.18983e-11
-9.97387e-11
6.891e-11
-5.70144e-11
8.46459e-11
-1.57385e-11
6.59226e-11
1.87205e-11
2.81672e-11
3.77531e-11
2.81669e-11
9.26591e-12
-3.27585e-11
-3.39262e-11
3.43193e-11
-1.64597e-10
1.59021e-10
-3.89022e-10
2.93666e-10
-7.0008e-10
4.17233e-10
-1.08442e-09
5.209e-10
-1.52652e-09
6.02017e-10
-2.01083e-09
6.60955e-10
-2.52271e-09
6.99357e-10
-3.04868e-09
7.19138e-10
-3.57637e-09
7.21955e-10
-4.09416e-09
7.08991e-10
-4.59093e-09
6.80923e-10
-5.05578e-09
6.3803e-10
-5.47791e-09
5.80362e-10
-5.84657e-09
5.07952e-10
-6.15131e-09
4.21029e-10
-6.38219e-09
3.20234e-10
-6.5302e-09
2.0679e-10
-6.58784e-09
8.26416e-11
-6.54958e-09
-4.94657e-11
-6.41251e-09
-1.85969e-10
-6.1768e-09
-3.22544e-10
-5.84616e-09
-4.54242e-10
-5.42811e-09
-5.75703e-10
-4.93402e-09
-6.81434e-10
-4.379e-09
-7.6615e-10
-3.78145e-09
-8.25145e-10
-3.1624e-09
-8.54671e-10
-2.54454e-09
-8.52281e-10
-1.95118e-09
-8.17126e-10
-1.40489e-09
-7.50163e-10
-9.26136e-10
-6.54292e-10
-5.31861e-10
-5.3444e-10
-2.33937e-10
-3.97671e-10
-3.75198e-11
-2.5344e-10
6.0934e-11
-1.14201e-10
7.63284e-11
3.31871e-12
3.86487e-11
7.54252e-11
6.68152e-11
-2.92671e-11
-3.49573e-12
-1.64068e-10
1.69107e-10
-4.28288e-10
4.23228e-10
-8.24083e-10
6.89446e-10
-1.34056e-09
9.33697e-10
-1.95973e-09
1.14006e-09
-2.66053e-09
1.3028e-09
-3.42126e-09
1.42167e-09
-4.22087e-09
1.49895e-09
-5.0394e-09
1.53766e-09
-5.85808e-09
1.54062e-09
-6.65902e-09
1.50992e-09
-7.42498e-09
1.44686e-09
-8.13908e-09
1.35212e-09
-8.78476e-09
1.22603e-09
-9.3458e-09
1.06898e-09
-9.80661e-09
8.81833e-10
-1.01527e-08
6.66291e-10
-1.03711e-08
4.25233e-10
-1.04515e-08
1.62957e-10
-1.03863e-08
-1.14684e-10
-1.0172e-08
-4.0027e-10
-9.80957e-09
-6.84946e-10
-9.30513e-09
-9.58696e-10
-8.67008e-09
-1.21076e-09
-7.92133e-09
-1.4302e-09
-7.08097e-09
-1.60652e-09
-6.17571e-09
-1.73042e-09
-5.23589e-09
-1.7945e-09
-4.29422e-09
-1.79396e-09
-3.38419e-09
-1.72717e-09
-2.53824e-09
-1.59612e-09
-1.78582e-09
-1.40671e-09
-1.15134e-09
-1.16893e-09
-6.52029e-10
-8.96992e-10
-2.95792e-10
-6.09685e-10
-7.89721e-11
-3.31028e-10
1.60932e-11
-9.17561e-11
2.37146e-11
6.77986e-11
9.05294e-11
-7.52354e-11
7.17365e-11
-3.17159e-10
4.11019e-10
-7.30874e-10
8.36929e-10
-1.30848e-09
1.26704e-09
-2.03265e-09
1.65786e-09
-2.88035e-09
1.98774e-09
-3.82578e-09
2.24823e-09
-4.84249e-09
2.43838e-09
-5.90452e-09
2.56096e-09
-6.98691e-09
2.62004e-09
-8.06578e-09
2.61947e-09
-9.11815e-09
2.56228e-09
-1.01217e-08
2.45044e-09
-1.10547e-08
2.28512e-09
-1.18959e-08
2.06713e-09
-1.26244e-08
1.79752e-09
-1.32207e-08
1.47813e-09
-1.36667e-08
1.11223e-09
-1.39464e-08
7.04974e-10
-1.40472e-08
2.63751e-10
-1.39603e-08
-2.01614e-10
-1.36817e-08
-6.78872e-10
-1.32131e-08
-1.15357e-09
-1.25623e-08
-1.6095e-09
-1.17438e-08
-2.02933e-09
-1.07785e-08
-2.3955e-09
-9.6938e-09
-2.6912e-09
-8.52272e-09
-2.9015e-09
-7.3027e-09
-3.01453e-09
-6.07416e-09
-3.0225e-09
-4.87862e-09
-2.92271e-09
-3.7565e-09
-2.71825e-09
-2.74471e-09
-2.41851e-09
-1.8742e-09
-2.03945e-09
-1.16742e-09
-1.60378e-09
-6.35985e-10
-1.14113e-09
-2.7845e-10
-6.8857e-10
-7.83677e-11
-2.91844e-10
-2.74832e-12
-7.82862e-12
8.77807e-11
-1.22157e-10
1.93889e-10
-4.75775e-10
7.64625e-10
-1.045e-09
1.40615e-09
-1.80869e-09
2.03071e-09
-2.74084e-09
2.58999e-09
-3.81229e-09
3.05917e-09
-4.99245e-09
3.42838e-09
-6.25067e-09
3.69658e-09
-7.55696e-09
3.86724e-09
-8.8824e-09
3.94547e-09
-1.01991e-08
3.93616e-09
-1.14801e-08
3.84322e-09
-1.26989e-08
3.6693e-09
-1.383e-08
3.41615e-09
-1.48481e-08
3.0852e-09
-1.57289e-08
2.67833e-09
-1.64495e-08
2.19871e-09
-1.69888e-08
1.65153e-09
-1.73285e-08
1.04469e-09
-1.7454e-08
3.89215e-10
-1.73551e-08
-3.00469e-10
-1.70274e-08
-1.00659e-09
-1.64727e-08
-1.70833e-09
-1.56997e-08
-2.38245e-09
-1.47249e-08
-3.00416e-09
-1.35721e-08
-3.54834e-09
-1.22724e-08
-3.99089e-09
-1.08636e-08
-4.31034e-09
-9.38868e-09
-4.48942e-09
-7.89453e-09
-4.51667e-09
-6.4295e-09
-4.38774e-09
-5.04115e-09
-4.10661e-09
-3.77345e-09
-3.68622e-09
-2.66396e-09
-3.14895e-09
-1.74106e-09
-2.52668e-09
-1.02142e-09
-1.86077e-09
-5.07872e-10
-1.20212e-09
-1.87948e-10
-6.11779e-10
-3.32884e-11
-1.62491e-10
5.4492e-11
-1.67675e-10
3.61561e-10
-6.31983e-10
1.22892e-09
-1.35649e-09
2.13064e-09
-2.30553e-09
2.97974e-09
-3.44306e-09
3.72752e-09
-4.73291e-09
4.34901e-09
-6.13937e-09
4.83483e-09
-7.62774e-09
5.18493e-09
-9.16456e-09
5.40405e-09
-1.07177e-08
5.49856e-09
-1.2256e-08
5.4745e-09
-1.37495e-08
5.33665e-09
-1.51685e-08
5.08835e-09
-1.64843e-08
4.73196e-09
-1.76687e-08
4.26958e-09
-1.86945e-08
3.70409e-09
-1.95359e-08
3.04011e-09
-2.01694e-08
2.28502e-09
-2.05744e-08
1.44972e-09
-2.07344e-08
5.49193e-10
-2.06378e-08
-3.9716e-10
-2.02787e-08
-1.36561e-09
-1.96586e-08
-2.32845e-09
-1.87863e-08
-3.25478e-09
-1.76788e-08
-4.11166e-09
-1.63616e-08
-4.86554e-09
-1.48684e-08
-5.48411e-09
-1.32405e-08
-5.93831e-09
-1.15254e-08
-6.20446e-09
-9.77572e-09
-6.26638e-09
-8.04621e-09
-6.11727e-09
-6.39152e-09
-5.7613e-09
-4.86306e-09
-5.21469e-09
-3.5058e-09
-4.50622e-09
-2.35526e-09
-3.67724e-09
-1.43471e-09
-2.78133e-09
-7.53091e-10
-1.88374e-09
-3.03814e-10
-1.06106e-09
-6.47928e-11
-4.0152e-10
-1.03011e-11
-2.10914e-10
5.72471e-10
-7.82082e-10
1.80008e-09
-1.65775e-09
3.00629e-09
-2.78769e-09
4.10967e-09
-4.12526e-09
5.06507e-09
-5.62676e-09
5.8505e-09
-7.25112e-09
6.45918e-09
-8.95966e-09
6.89346e-09
-1.07158e-08
7.16018e-09
-1.24847e-08
7.26742e-09
-1.42328e-08
7.22259e-09
-1.59276e-08
7.03142e-09
-1.75372e-08
6.69797e-09
-1.90304e-08
6.22517e-09
-2.03766e-08
5.61582e-09
-2.15464e-08
4.87379e-09
-2.25115e-08
4.0052e-09
-2.32461e-08
3.01964e-09
-2.37274e-08
1.93107e-09
-2.39368e-08
7.58526e-10
-2.38604e-08
-4.73507e-10
-2.34909e-08
-1.73514e-09
-2.28279e-08
-2.99149e-09
-2.18791e-08
-4.20358e-09
-2.06611e-08
-5.32965e-09
-1.91997e-08
-6.32696e-09
-1.75299e-08
-7.15393e-09
-1.56955e-08
-7.77272e-09
-1.3748e-08
-8.15191e-09
-1.17452e-08
-8.26922e-09
-9.74836e-09
-8.11413e-09
-7.81971e-09
-7.68995e-09
-6.01902e-09
-7.01539e-09
-4.4e-09
-6.12524e-09
-3.00685e-09
-5.0704e-09
-1.87118e-09
-3.91701e-09
-1.00974e-09
-2.74519e-09
-4.23186e-10
-1.64762e-09
-9.63266e-11
-7.28382e-10
-1.06628e-10
-2.51537e-10
8.24006e-10
-9.24211e-10
2.47274e-09
-1.94447e-09
4.02655e-09
-3.24809e-09
5.41328e-09
-4.77791e-09
6.59488e-09
-6.48262e-09
7.55519e-09
-8.31572e-09
8.29228e-09
-1.02347e-08
8.81242e-09
-1.22001e-08
9.12557e-09
-1.41749e-08
9.24218e-09
-1.61236e-08
9.17129e-09
-1.80119e-08
8.91976e-09
-1.98064e-08
8.4924e-09
-2.14739e-08
7.89269e-09
-2.29821e-08
7.12406e-09
-2.42996e-08
6.19123e-09
-2.53961e-08
5.10173e-09
-2.62436e-08
3.86716e-09
-2.6817e-08
2.50441e-09
-2.70948e-08
1.03638e-09
-2.70609e-08
-5.07489e-10
-2.67048e-08
-2.0912e-09
-2.60237e-08
-3.67263e-09
-2.50228e-08
-5.20442e-09
-2.3717e-08
-6.63549e-09
-2.21309e-08
-7.91306e-09
-2.02997e-08
-8.98516e-09
-1.82687e-08
-9.8037e-09
-1.60928e-08
-1.03278e-08
-1.38346e-08
-1.05274e-08
-1.15623e-08
-1.03864e-08
-9.34654e-09
-9.90568e-09
-7.2568e-09
-9.10513e-09
-5.35718e-09
-8.02487e-09
-3.70246e-09
-6.72512e-09
-2.33454e-09
-5.28493e-09
-1.27966e-09
-3.80008e-09
-5.46875e-10
-2.3804e-09
-1.28172e-10
-1.14709e-09
-2.348e-10
-2.89372e-10
1.11337e-09
-1.05722e-09
3.24058e-09
-2.21377e-09
5.18308e-09
-3.68171e-09
6.88121e-09
-5.39386e-09
8.30702e-09
-7.29153e-09
9.45286e-09
-9.32301e-09
1.03238e-08
-1.14421e-08
1.09315e-08
-1.36069e-08
1.12904e-08
-1.57785e-08
1.14137e-08
-1.792e-08
1.13128e-08
-1.99961e-08
1.09958e-08
-2.19719e-08
1.04682e-08
-2.38134e-08
9.73417e-09
-2.54868e-08
8.79744e-09
-2.69591e-08
7.66347e-09
-2.81982e-08
6.34085e-09
-2.91739e-08
4.8429e-09
-2.98585e-08
3.18898e-09
-3.02276e-08
1.40546e-09
-3.02615e-08
-4.73647e-10
-2.99461e-08
-2.40656e-09
-2.92747e-08
-4.34403e-09
-2.82489e-08
-6.23024e-09
-2.688e-08
-8.00438e-09
-2.51903e-08
-9.60276e-09
-2.32137e-08
-1.09618e-08
-2.09959e-08
-1.20215e-08
-1.85944e-08
-1.27294e-08
-1.60765e-08
-1.30453e-08
-1.35178e-08
-1.29452e-08
-1.09981e-08
-1.24253e-08
-8.59832e-09
-1.1505e-08
-6.3948e-09
-1.02284e-08
-4.45522e-09
-8.6647e-09
-2.83393e-09
-6.90622e-09
-1.56855e-09
-5.06546e-09
-6.77836e-10
-3.27112e-09
-1.6127e-10
-1.66366e-09
-3.96071e-10
-3.2424e-10
1.43761e-09
-1.18015e-09
4.09648e-09
-2.46325e-09
6.46618e-09
-4.08432e-09
8.50227e-09
-5.9669e-09
1.01896e-08
-8.04545e-09
1.15314e-08
-1.02634e-08
1.25417e-08
-1.25712e-08
1.32394e-08
-1.49248e-08
1.36439e-08
-1.72839e-08
1.37728e-08
-1.96107e-08
1.36397e-08
-2.18692e-08
1.32543e-08
-2.4024e-08
1.2623e-08
-2.60402e-08
1.17504e-08
-2.78834e-08
1.06406e-08
-2.95192e-08
9.29925e-09
-3.0914e-08
7.73565e-09
-3.20353e-08
5.96427e-09
-3.28527e-08
4.00635e-09
-3.33383e-08
1.89106e-09
-3.34683e-08
-3.43683e-10
-3.3224e-08
-2.65087e-09
-3.25935e-08
-4.97453e-09
-3.15732e-08
-7.25051e-09
-3.01696e-08
-9.40795e-09
-2.84009e-08
-1.13716e-08
-2.62979e-08
-1.30647e-08
-2.39057e-08
-1.44137e-08
-2.12831e-08
-1.5352e-08
-1.85019e-08
-1.58265e-08
-1.56451e-08
-1.58021e-08
-1.28029e-08
-1.52674e-08
-1.0069e-08
-1.42389e-08
-7.53443e-09
-1.2763e-08
-5.28223e-09
-1.09169e-08
-3.38181e-09
-8.80664e-09
-1.88445e-09
-6.56283e-09
-8.20238e-10
-4.33533e-09
-1.96913e-10
-2.28699e-09
-5.92984e-10
-3.55902e-10
1.79351e-09
-1.29194e-09
5.03252e-09
-2.69056e-09
7.86478e-09
-4.45187e-09
1.02636e-08
-6.49111e-09
1.22288e-08
-8.73652e-09
1.37768e-08
-1.11272e-08
1.49323e-08
-1.36107e-08
1.57228e-08
-1.61411e-08
1.61744e-08
-1.86773e-08
1.63089e-08
-2.11809e-08
1.61433e-08
-2.36158e-08
1.56891e-08
-2.59465e-08
1.49537e-08
-2.8138e-08
1.39419e-08
-3.01553e-08
1.26579e-08
-3.19633e-08
1.11073e-08
-3.3527e-08
9.29937e-09
-3.48119e-08
7.24917e-09
-3.57845e-08
4.97896e-09
-3.64133e-08
2.51981e-09
-3.66696e-08
-8.73788e-11
-3.65293e-08
-2.79121e-09
-3.59741e-08
-5.52968e-09
-3.4994e-08
-8.23067e-09
-3.35887e-08
-1.08133e-08
-3.17703e-08
-1.31899e-08
-2.95654e-08
-1.52697e-08
-2.70161e-08
-1.6963e-08
-2.41813e-08
-1.81868e-08
-2.11365e-08
-1.88713e-08
-1.79718e-08
-1.89668e-08
-1.47887e-08
-1.84505e-08
-1.16952e-08
-1.73324e-08
-8.79944e-09
-1.56588e-08
-6.2027e-09
-1.35136e-08
-3.99254e-09
-1.10168e-08
-2.23673e-09
-8.31865e-09
-9.78937e-10
-5.59313e-09
-2.36563e-10
-3.02936e-09
-8.29547e-10
-3.84044e-10
2.17755e-09
-1.39144e-09
6.03991e-09
-2.89321e-09
9.36655e-09
-4.78022e-09
1.21506e-08
-6.96042e-09
1.4409e-08
-9.35666e-09
1.6173e-08
-1.19042e-08
1.74799e-08
-1.45483e-08
1.83669e-08
-1.72416e-08
1.88677e-08
-1.99424e-08
1.90097e-08
-2.26124e-08
1.88134e-08
-2.52157e-08
1.82924e-08
-2.77174e-08
1.74554e-08
-3.00827e-08
1.63072e-08
-3.22766e-08
1.48519e-08
-3.42638e-08
1.30944e-08
-3.60081e-08
1.10437e-08
-3.74732e-08
8.71424e-09
-3.86227e-08
6.12844e-09
-3.9421e-08
3.31816e-09
-3.98346e-08
3.2614e-10
-3.98328e-08
-2.79299e-09
-3.93903e-08
-5.97219e-09
-3.84888e-08
-9.13212e-09
-3.712e-08
-1.2182e-08
-3.52881e-08
-1.50218e-08
-3.30125e-08
-1.75453e-08
-3.03306e-08
-1.96448e-08
-2.72997e-08
-2.12177e-08
-2.39971e-08
-2.21739e-08
-2.05195e-08
-2.24444e-08
-1.69798e-08
-2.19902e-08
-1.35018e-08
-2.08104e-08
-1.0213e-08
-1.89475e-08
-7.23643e-09
-1.64903e-08
-4.68127e-09
-1.3572e-08
-2.63539e-09
-1.03645e-08
-1.15912e-09
-7.0694e-09
-2.81777e-10
-3.90671e-09
-1.11132e-09
-4.08301e-10
2.58585e-09
-1.47735e-09
7.10895e-09
-3.0686e-09
1.09578e-08
-5.0651e-09
1.41471e-08
-7.36865e-09
1.67126e-08
-9.89754e-09
1.87019e-08
-1.25839e-08
2.01662e-08
-1.53709e-08
2.1154e-08
-1.82106e-08
2.17073e-08
-2.10608e-08
2.18599e-08
-2.38839e-08
2.16365e-08
-2.66446e-08
2.10532e-08
-2.9309e-08
2.01197e-08
-3.18432e-08
1.88414e-08
-3.42128e-08
1.72214e-08
-3.63824e-08
1.52641e-08
-3.83155e-08
1.29767e-08
-3.9974e-08
1.03728e-08
-4.13192e-08
7.47361e-09
-4.23116e-08
4.31051e-09
-4.29122e-08
9.26726e-10
-4.30838e-08
-2.62133e-09
-4.27931e-08
-6.26293e-09
-4.20125e-08
-9.91264e-09
-4.07239e-08
-1.34707e-08
-3.89213e-08
-1.68245e-08
-3.66149e-08
-1.98516e-08
-3.38348e-08
-2.2425e-08
-3.06334e-08
-2.4419e-08
-2.70881e-08
-2.57192e-08
-2.33003e-08
-2.62321e-08
-1.9394e-08
-2.58966e-08
-1.55096e-08
-2.46948e-08
-1.17964e-08
-2.26606e-08
-8.4025e-09
-1.98842e-08
-5.4631e-09
-1.65114e-08
-3.09063e-09
-1.2737e-08
-1.36614e-09
-8.79389e-09
-3.34148e-10
-4.93869e-09
-1.44547e-09
-4.28283e-10
3.01414e-09
-1.54838e-09
8.22904e-09
-3.21411e-09
1.26235e-08
-5.30226e-09
1.62352e-08
-7.70965e-09
1.912e-08
-1.03508e-08
2.13431e-08
-1.31554e-08
2.29707e-08
-1.60651e-08
2.40637e-08
-1.90314e-08
2.46736e-08
-2.20125e-08
2.48411e-08
-2.49715e-08
2.45955e-08
-2.78745e-08
2.39561e-08
-3.06888e-08
2.2934e-08
-3.3382e-08
2.15346e-08
-3.59209e-08
1.97604e-08
-3.82709e-08
1.7614e-08
-4.03953e-08
1.51012e-08
-4.22554e-08
1.22329e-08
-4.38101e-08
9.02837e-09
-4.50167e-08
5.5171e-09
-4.58311e-08
1.74115e-09
-4.62095e-08
-2.24294e-09
-4.611e-08
-6.36249e-09
-4.5495e-08
-1.05276e-08
-4.4335e-08
-1.46307e-08
-4.26121e-08
-1.85474e-08
-4.03244e-08
-2.21393e-08
-3.74913e-08
-2.5258e-08
-3.41576e-08
-2.77528e-08
-3.03968e-08
-2.948e-08
-2.63129e-08
-3.0316e-08
-2.20392e-08
-3.01704e-08
-1.77329e-08
-2.90011e-08
-1.35669e-08
-2.68265e-08
-9.718e-09
-2.37331e-08
-6.35237e-09
-1.9877e-08
-3.61245e-09
-1.54769e-08
-1.60533e-09
-1.0801e-08
-3.95297e-10
-6.14872e-09
-1.84077e-09
-4.43626e-10
3.45776e-09
-1.6033e-09
9.38871e-09
-3.32733e-09
1.43476e-08
-5.48779e-09
1.83957e-08
-7.97767e-09
2.16098e-08
-1.07086e-08
2.4074e-08
-1.36082e-08
2.58704e-08
-1.66173e-08
2.70728e-08
-1.96872e-08
2.77434e-08
-2.27766e-08
2.79305e-08
-2.58499e-08
2.76688e-08
-2.88747e-08
2.6981e-08
-3.18204e-08
2.58798e-08
-3.46566e-08
2.43707e-08
-3.73517e-08
2.24555e-08
-3.98727e-08
2.0135e-08
-4.21837e-08
1.74122e-08
-4.42459e-08
1.42951e-08
-4.6017e-08
1.07994e-08
-4.74515e-08
6.95158e-09
-4.8501e-08
2.79069e-09
-4.91155e-08
-1.62846e-09
-4.92446e-08
-6.23335e-09
-4.88406e-08
-1.09316e-08
-4.78612e-08
-1.561e-08
-4.62748e-08
-2.01339e-08
-4.4065e-08
-2.43492e-08
-4.12368e-08
-2.80862e-08
-3.78232e-08
-3.11664e-08
-3.38897e-08
-3.34135e-08
-2.95388e-08
-3.46668e-08
-2.49101e-08
-3.47991e-08
-2.01766e-08
-3.37347e-08
-1.55359e-08
-3.14672e-08
-1.11967e-08
-2.80723e-08
-7.36186e-09
-2.37118e-08
-4.21032e-09
-1.86285e-08
-1.88195e-09
-1.31294e-08
-4.66853e-10
-7.56381e-09
-2.30762e-09
-4.54027e-10
3.91179e-09
-1.64113e-09
1.05758e-08
-3.4063e-09
1.61127e-08
-5.61846e-09
2.06079e-08
-8.16784e-09
2.41592e-08
-1.09639e-08
2.68701e-08
-1.39329e-08
2.88394e-08
-1.7015e-08
3.01549e-08
-2.01616e-08
3.08899e-08
-2.33323e-08
3.11012e-08
-2.64931e-08
3.08296e-08
-2.96137e-08
3.01016e-08
-3.26658e-08
2.89318e-08
-3.56214e-08
2.73264e-08
-3.84518e-08
2.52859e-08
-4.11258e-08
2.28091e-08
-4.36094e-08
1.98958e-08
-4.58648e-08
1.65504e-08
-4.78495e-08
1.27842e-08
-4.95166e-08
8.61865e-09
-5.08144e-08
4.08857e-09
-5.16877e-08
-7.55189e-10
-5.20785e-08
-5.84256e-09
-5.19287e-08
-1.10814e-08
-5.11834e-08
-1.63553e-08
-4.97954e-08
-2.15218e-08
-4.77315e-08
-2.64131e-08
-4.49788e-08
-3.08388e-08
-4.15536e-08
-3.45917e-08
-3.75083e-08
-3.74588e-08
-3.29381e-08
-3.9237e-08
-2.79845e-08
-3.97527e-08
-2.28331e-08
-3.8886e-08
-1.77063e-08
-3.65941e-08
-1.28476e-08
-3.2931e-08
-8.502e-09
-2.80574e-08
-4.89282e-09
-2.22376e-08
-2.20105e-09
-1.58211e-08
-5.50454e-10
-9.2144e-09
-2.85808e-09
-4.59308e-10
4.3711e-09
-1.66131e-09
1.17778e-08
-3.44983e-09
1.79013e-08
-5.69216e-09
2.28502e-08
-8.27678e-09
2.67438e-08
-1.11117e-08
2.9705e-08
-1.4122e-08
3.18497e-08
-1.72476e-08
3.32805e-08
-2.04402e-08
3.40825e-08
-2.36608e-08
3.43218e-08
-2.6877e-08
3.40458e-08
-3.00609e-08
3.32855e-08
-3.3187e-08
3.2058e-08
-3.62305e-08
3.03699e-08
-3.91659e-08
2.82212e-08
-4.19651e-08
2.56083e-08
-4.45969e-08
2.25277e-08
-4.70256e-08
1.89791e-08
-4.92099e-08
1.49686e-08
-5.11031e-08
1.05118e-08
-5.26518e-08
5.63733e-09
-5.37971e-08
3.90076e-10
-5.44747e-08
-5.16493e-09
-5.46174e-08
-1.09388e-08
-5.41576e-08
-1.6815e-08
-5.30324e-08
-2.2647e-08
-5.11892e-08
-2.82563e-08
-4.85942e-08
-3.34337e-08
-4.5242e-08
-3.79439e-08
-4.11654e-08
-4.15354e-08
-3.64456e-08
-4.39568e-08
-3.1219e-08
-4.49793e-08
-2.56791e-08
-4.44259e-08
-2.00703e-08
-4.22029e-08
-1.4673e-08
-3.83283e-08
-9.77984e-09
-3.29506e-08
-5.66718e-09
-2.63503e-08
-2.56735e-09
-1.8921e-08
-6.47733e-10
-1.1134e-08
-3.50581e-09
-4.59463e-10
4.83056e-09
-1.66381e-09
1.29822e-08
-3.45783e-09
1.96953e-08
-5.70845e-09
2.51008e-08
-8.30325e-09
2.93387e-08
-1.11492e-08
3.2551e-08
-1.41707e-08
3.48713e-08
-1.73076e-08
3.64174e-08
-2.0512e-08
3.7287e-08
-2.37463e-08
3.75561e-08
-2.69801e-08
3.72797e-08
-3.01884e-08
3.64938e-08
-3.33488e-08
3.52184e-08
-3.64403e-08
3.34614e-08
-3.94411e-08
3.1222e-08
-4.23273e-08
2.84945e-08
-4.50714e-08
2.52718e-08
-4.76412e-08
2.15489e-08
-4.99985e-08
1.73259e-08
-5.20981e-08
1.26114e-08
-5.38874e-08
7.42655e-09
-5.53055e-08
1.80819e-09
-5.62842e-08
-4.18622e-09
-5.67487e-08
-1.04742e-08
-5.66203e-08
-1.69434e-08
-5.58204e-08
-2.3447e-08
-5.42763e-08
-2.98004e-08
-5.19304e-08
-3.57796e-08
-4.87506e-08
-4.11237e-08
-4.47435e-08
-4.55425e-08
-3.99679e-08
-4.87324e-08
-3.45463e-08
-5.04009e-08
-2.86718e-08
-5.03003e-08
-2.26064e-08
-4.82683e-08
-1.66667e-08
-4.4268e-08
-1.11979e-08
-3.84194e-08
-6.53874e-09
-3.10094e-08
-2.98506e-09
-2.24746e-08
-7.603e-10
-1.33588e-08
-4.26611e-09
-4.54725e-10
5.28529e-09
-1.64942e-09
1.41769e-08
-3.43165e-09
2.14775e-08
-5.66905e-09
2.73382e-08
-8.24886e-09
3.19185e-08
-1.10773e-08
3.53794e-08
-1.40784e-08
3.78724e-08
-1.71917e-08
3.95307e-08
-2.03703e-08
4.04655e-08
-2.35779e-08
4.07637e-08
-2.67865e-08
4.04883e-08
-2.9974e-08
3.96812e-08
-3.31217e-08
3.83662e-08
-3.62128e-08
3.65525e-08
-3.923e-08
3.42392e-08
-4.21544e-08
3.14189e-08
-4.49635e-08
2.80809e-08
-4.76298e-08
2.42153e-08
-5.01198e-08
1.98158e-08
-5.23921e-08
1.48838e-08
-5.43967e-08
9.43113e-09
-5.60738e-08
3.48533e-09
-5.73537e-08
-2.90629e-09
-5.81569e-08
-9.67097e-09
-5.83957e-08
-1.67046e-08
-5.79772e-08
-2.38654e-08
-5.68093e-08
-3.09684e-08
-5.48085e-08
-3.77804e-08
-5.19123e-08
-4.40198e-08
-4.80943e-08
-4.93605e-08
-4.33813e-08
-5.34454e-08
-3.78711e-08
-5.59111e-08
-3.17459e-08
-5.64256e-08
-2.52763e-08
-5.47379e-08
-1.88116e-08
-5.07327e-08
-1.27526e-08
-4.44784e-08
-7.51027e-09
-3.62518e-08
-3.45767e-09
-2.65272e-08
-8.89714e-10
-1.59267e-08
-5.15582e-09
-4.45623e-10
5.73092e-09
-1.6199e-09
1.53512e-08
-3.37453e-09
2.32322e-08
-5.57848e-09
2.95422e-08
-8.11888e-09
3.44589e-08
-1.09014e-08
3.81619e-08
-1.38494e-08
4.08204e-08
-1.69026e-08
4.2584e-08
-2.00148e-08
4.35778e-08
-2.31515e-08
4.39004e-08
-2.62872e-08
4.36239e-08
-2.94029e-08
4.2797e-08
-3.24842e-08
4.14475e-08
-3.55188e-08
3.95871e-08
-3.84948e-08
3.72153e-08
-4.13989e-08
3.43229e-08
-4.42146e-08
3.08966e-08
-4.69207e-08
2.69214e-08
-4.94899e-08
2.2385e-08
-5.18865e-08
1.72804e-08
-5.40658e-08
1.16104e-08
-5.59718e-08
5.39137e-09
-5.75366e-08
-1.34154e-09
-5.86791e-08
-8.52838e-09
-5.93062e-08
-1.60775e-08
-5.93137e-08
-2.38579e-08
-5.85915e-08
-3.16906e-08
-5.70307e-08
-3.93413e-08
-5.45357e-08
-4.65148e-08
-5.10409e-08
-5.28552e-08
-4.65322e-08
-5.79541e-08
-4.10698e-08
-6.13734e-08
-3.48107e-08
-6.26846e-08
-2.80218e-08
-6.15268e-08
-2.10771e-08
-5.76774e-08
-1.4433e-08
-5.11224e-08
-8.58111e-09
-4.21037e-08
-3.98762e-09
-3.11207e-08
-1.03743e-09
-1.88769e-08
-6.19325e-09
-4.3306e-10
6.16398e-09
-1.57823e-09
1.64963e-08
-3.29199e-09
2.49459e-08
-5.44465e-09
3.16949e-08
-7.92299e-09
3.69372e-08
-1.06318e-08
4.08708e-08
-1.3494e-08
4.36826e-08
-1.64493e-08
4.55393e-08
-1.94525e-08
4.6581e-08
-2.24708e-08
4.69187e-08
-2.54817e-08
4.66348e-08
-2.84699e-08
4.57852e-08
-3.14253e-08
4.44029e-08
-3.43409e-08
4.25027e-08
-3.72106e-08
4.00849e-08
-4.00274e-08
3.71398e-08
-4.2782e-08
3.36511e-08
-4.54604e-08
2.95998e-08
-4.80429e-08
2.49675e-08
-5.0502e-08
1.97395e-08
-5.28001e-08
1.39086e-08
-5.48882e-08
7.47946e-09
-5.67033e-08
4.73611e-10
-5.81672e-08
-7.06447e-09
-5.91851e-08
-1.50596e-08
-5.9646e-08
-2.3397e-08
-5.94253e-08
-3.19113e-08
-5.83906e-08
-4.03759e-08
-5.64132e-08
-4.84923e-08
-5.33843e-08
-5.5884e-08
-4.924e-08
-6.20985e-08
-4.39898e-08
-6.66236e-08
-3.77488e-08
-6.89256e-08
-3.07627e-08
-6.8513e-08
-2.34168e-08
-6.50232e-08
-1.62185e-08
-5.83208e-08
-9.74624e-09
-4.85759e-08
-4.576e-09
-3.62909e-08
-1.20475e-09
-2.22481e-08
-7.398e-09
-4.18391e-10
6.58237e-09
-1.52884e-09
1.76068e-08
-3.1923e-09
2.66094e-08
-5.27951e-09
3.37821e-08
-7.67612e-09
3.93339e-08
-1.02855e-08
4.34802e-08
-1.30298e-08
4.64268e-08
-1.58489e-08
4.83583e-08
-1.86987e-08
4.94308e-08
-2.15488e-08
4.97689e-08
-2.43799e-08
4.94659e-08
-2.71809e-08
4.85861e-08
-2.99466e-08
4.71686e-08
-3.26755e-08
4.52317e-08
-3.5368e-08
4.27774e-08
-3.80242e-08
3.9796e-08
-4.06423e-08
3.62692e-08
-4.32169e-08
3.21745e-08
-4.57372e-08
2.74878e-08
-4.81849e-08
2.21873e-08
-5.05324e-08
1.6256e-08
-5.27398e-08
9.68687e-09
-5.47528e-08
2.48664e-09
-5.64998e-08
-5.31744e-09
-5.78895e-08
-1.367e-08
-5.88092e-08
-2.24773e-08
-5.91252e-08
-3.15953e-08
-5.86864e-08
-4.08147e-08
-5.73328e-08
-4.98458e-08
-5.49118e-08
-5.8305e-08
-5.1303e-08
-6.57072e-08
-4.64529e-08
-7.14737e-08
-4.0416e-08
-7.49626e-08
-3.33949e-08
-7.5534e-08
-2.57666e-08
-7.26515e-08
-1.80774e-08
-6.60099e-08
-1.09953e-08
-5.56581e-08
-5.22213e-09
-4.20641e-08
-1.39274e-09
-2.60775e-08
-8.79074e-09
-4.03531e-10
6.98591e-09
-1.47801e-09
1.86813e-08
-3.08707e-09
2.82185e-08
-5.09987e-09
3.57949e-08
-7.39929e-09
4.16333e-08
-9.88642e-09
4.59673e-08
-1.24822e-08
4.90226e-08
-1.51269e-08
5.1003e-08
-1.77781e-08
5.20821e-08
-2.04085e-08
5.23993e-08
-2.30025e-08
5.20599e-08
-2.55537e-08
5.11374e-08
-2.80626e-08
4.96775e-08
-3.05338e-08
4.77029e-08
-3.29746e-08
4.52182e-08
-3.53925e-08
4.22139e-08
-3.77941e-08
3.86708e-08
-4.01831e-08
3.45634e-08
-4.25584e-08
2.98631e-08
-4.49124e-08
2.45413e-08
-4.72286e-08
1.85723e-08
-4.94789e-08
1.19372e-08
-5.16206e-08
4.62834e-09
-5.35927e-08
-3.34536e-09
-5.53123e-08
-1.19504e-08
-5.66711e-08
-2.11185e-08
-5.75331e-08
-3.07332e-08
-5.77353e-08
-4.06125e-08
-5.70922e-08
-5.04889e-08
-5.54096e-08
-5.99876e-08
-5.25082e-08
-6.86086e-08
-4.82611e-08
-7.57208e-08
-4.26437e-08
-8.058e-08
-3.57904e-08
-8.23873e-08
-2.80425e-08
-8.03993e-08
-1.99654e-08
-7.4087e-08
-1.23115e-08
-6.3312e-08
-5.92327e-09
-4.84522e-08
-1.6022e-09
-3.03986e-08
-1.03929e-08
-3.91105e-10
7.37701e-09
-1.43424e-09
1.97244e-08
-2.99198e-09
2.97762e-08
-4.92824e-09
3.77312e-08
-7.12057e-09
4.38256e-08
-9.46637e-09
4.83131e-08
-1.18852e-08
5.14414e-08
-1.4318e-08
5.34358e-08
-1.6725e-08
5.44891e-08
-1.90827e-08
5.4757e-08
-2.13806e-08
5.43577e-08
-2.36178e-08
5.33746e-08
-2.58011e-08
5.18608e-08
-2.79419e-08
4.98438e-08
-3.00547e-08
4.7331e-08
-3.21551e-08
4.43143e-08
-3.42582e-08
4.07739e-08
-3.6377e-08
3.66822e-08
-3.85208e-08
3.2007e-08
-4.06933e-08
2.67138e-08
-4.28903e-08
2.07693e-08
-4.50969e-08
1.41438e-08
-4.72843e-08
6.81574e-09
-4.94055e-08
-1.22408e-09
-5.13909e-08
-9.96495e-09
-5.31428e-08
-1.93666e-08
-5.45307e-08
-2.93453e-08
-5.5388e-08
-3.97552e-08
-5.55129e-08
-5.0364e-08
-5.46764e-08
-6.08241e-08
-5.26424e-08
-7.06426e-08
-4.92049e-08
-7.91583e-08
-4.4244e-08
-8.55409e-08
-3.77986e-08
-8.88327e-08
-3.01406e-08
-8.80573e-08
-2.18239e-08
-8.24037e-08
-1.36709e-08
-7.14651e-08
-6.67429e-09
-5.54488e-08
-1.83366e-09
-3.52392e-08
-1.22266e-08
-3.84684e-10
7.7617e-09
-1.40893e-09
2.07487e-08
-2.92769e-09
3.1295e-08
-4.79394e-09
3.95974e-08
-6.87604e-09
4.59077e-08
-9.06597e-09
5.05031e-08
-1.12817e-08
5.36571e-08
-1.34657e-08
5.56199e-08
-1.55824e-08
5.66058e-08
-1.76136e-08
5.67882e-08
-1.9555e-08
5.62992e-08
-2.14129e-08
5.52325e-08
-2.32011e-08
5.36489e-08
-2.49385e-08
5.15812e-08
-2.66474e-08
4.90399e-08
-2.83515e-08
4.60184e-08
-3.00745e-08
4.2497e-08
-3.1839e-08
3.84468e-08
-3.36646e-08
3.38326e-08
-3.55663e-08
2.86155e-08
-3.75526e-08
2.27555e-08
-3.96226e-08
1.62139e-08
-4.1763e-08
8.95615e-09
-4.39434e-08
9.56323e-10
-4.61112e-08
-7.79718e-09
-4.8185e-08
-1.72928e-08
-5.00477e-08
-2.74826e-08
-5.15395e-08
-3.82634e-08
-5.24534e-08
-4.94501e-08
-5.2537e-08
-6.07405e-08
-5.15054e-08
-7.16741e-08
-4.90741e-08
-8.15896e-08
-4.50163e-08
-8.95986e-08
-3.92493e-08
-9.45998e-08
-3.19368e-08
-9.53697e-08
-2.35795e-08
-9.0761e-08
-1.50417e-08
-8.00029e-08
-7.46774e-09
-6.30228e-08
-2.08755e-09
-4.06194e-08
-1.43141e-08
-3.89143e-10
8.15085e-09
-1.41728e-09
2.17768e-08
-2.92126e-09
3.2799e-08
-4.73447e-09
4.14107e-08
-6.71091e-09
4.78842e-08
-8.73503e-09
5.25272e-08
-1.07235e-08
5.56455e-08
-1.2622e-08
5.75185e-08
-1.44011e-08
5.83849e-08
-1.60503e-08
5.84374e-08
-1.75736e-08
5.78225e-08
-1.89859e-08
5.66448e-08
-2.03093e-08
5.49724e-08
-2.15711e-08
5.2843e-08
-2.28016e-08
5.02704e-08
-2.40328e-08
4.72496e-08
-2.52971e-08
4.37613e-08
-2.66261e-08
3.97758e-08
-2.80493e-08
3.52558e-08
-2.95928e-08
3.0159e-08
-3.12774e-08
2.44401e-08
-3.31162e-08
1.80527e-08
-3.51118e-08
1.09517e-08
-3.72518e-08
3.09633e-09
-3.95034e-08
-5.54551e-09
-4.18065e-08
-1.49897e-08
-4.40645e-08
-2.52246e-08
-4.61345e-08
-3.61933e-08
-4.78178e-08
-4.77668e-08
-4.88532e-08
-5.97051e-08
-4.89216e-08
-7.16058e-08
-4.76679e-08
-8.28433e-08
-4.47552e-08
-9.25113e-08
-3.99572e-08
-9.93977e-08
-3.32885e-08
-1.02038e-07
-2.51436e-08
-9.89059e-08
-1.63841e-08
-8.87623e-08
-8.29397e-09
-7.11129e-08
-2.36448e-09
-4.65489e-08
-1.66786e-08
-4.1126e-10
8.56211e-09
-1.47973e-09
2.28453e-08
-3.00789e-09
3.43271e-08
-4.79721e-09
4.32e-08
-6.6805e-09
4.97675e-08
-8.53268e-09
5.43794e-08
-1.02702e-08
5.7383e-08
-1.18447e-08
5.90931e-08
-1.32362e-08
5.97764e-08
-1.44449e-08
5.96461e-08
-1.54861e-08
5.88637e-08
-1.63851e-08
5.75438e-08
-1.71739e-08
5.57611e-08
-1.78887e-08
5.35578e-08
-1.85685e-08
5.09503e-08
-1.92536e-08
4.79347e-08
-1.99845e-08
4.44923e-08
-2.08014e-08
4.05927e-08
-2.17429e-08
3.61973e-08
-2.28453e-08
3.12614e-08
-2.41407e-08
2.57355e-08
-2.56556e-08
1.95676e-08
-2.74081e-08
1.27042e-08
-2.94039e-08
5.09221e-09
-3.16318e-08
-3.31765e-09
-3.40557e-08
-1.25658e-08
-3.66056e-08
-2.26747e-08
-3.9165e-08
-3.36339e-08
-4.15569e-08
-4.53749e-08
-4.35294e-08
-5.77326e-08
-4.47481e-08
-7.03871e-08
-4.48047e-08
-8.27867e-08
-4.32584e-08
-9.40576e-08
-3.97266e-08
-1.0293e-07
-3.40354e-08
-1.0773e-07
-2.64113e-08
-1.0653e-07
-1.76495e-08
-9.75241e-08
-9.14165e-09
-7.96208e-08
-2.66575e-09
-5.30248e-08
-1.93444e-08
-4.60669e-10
9.02278e-09
-1.62405e-09
2.40087e-08
-3.23351e-09
3.59366e-08
-5.04132e-09
4.50078e-08
-6.85088e-09
5.15771e-08
-8.52625e-09
5.60548e-08
-9.98631e-09
5.88431e-08
-1.11934e-08
6.03002e-08
-1.21414e-08
6.07244e-08
-1.28459e-08
6.03507e-08
-1.33365e-08
5.93544e-08
-1.36516e-08
5.78588e-08
-1.38344e-08
5.5944e-08
-1.39313e-08
5.36547e-08
-1.399e-08
5.1009e-08
-1.40589e-08
4.80036e-08
-1.41861e-08
4.46195e-08
-1.44196e-08
4.08262e-08
-1.4806e-08
3.65837e-08
-1.53904e-08
3.18457e-08
-1.62151e-08
2.65602e-08
-1.73185e-08
2.06711e-08
-1.8733e-08
1.41187e-08
-2.04819e-08
6.84115e-09
-2.25752e-08
-1.2244e-09
-2.50026e-08
-1.01383e-08
-2.77246e-08
-1.99527e-08
-3.06587e-08
-3.06997e-08
-3.3662e-08
-4.23716e-08
-3.65101e-08
-5.48845e-08
-3.8877e-08
-6.80202e-08
-4.03264e-08
-8.13373e-08
-4.0332e-08
-9.4052e-08
-3.83546e-08
-1.04907e-07
-3.40002e-08
-1.12084e-07
-2.72605e-08
-1.1327e-07
-1.87797e-08
-1.06005e-07
-9.99831e-09
-8.84021e-08
-2.99416e-09
-6.00289e-08
-2.23385e-08
-5.51407e-10
9.57419e-09
-1.88841e-09
2.53457e-08
-3.65784e-09
3.7706e-08
-5.53939e-09
4.68894e-08
-7.29804e-09
5.33357e-08
-8.78763e-09
5.75444e-08
-9.9351e-09
5.99906e-08
-1.07203e-08
6.10854e-08
-1.11583e-08
6.11623e-08
-1.1285e-08
6.04774e-08
-1.11488e-08
5.92181e-08
-1.08036e-08
5.75136e-08
-1.03058e-08
5.54462e-08
-9.7126e-09
5.30615e-08
-9.08047e-09
5.03769e-08
-8.46541e-09
4.73885e-08
-7.92258e-09
4.40767e-08
-7.50631e-09
4.04099e-08
-7.27011e-09
3.63475e-08
-7.26638e-09
3.1842e-08
-7.54601e-09
2.68398e-08
-8.15762e-09
2.12827e-08
-9.14617e-09
1.51073e-08
-1.05509e-08
8.24588e-09
-1.24019e-08
6.26566e-10
-1.47145e-08
-7.82565e-09
-1.74814e-08
-1.71858e-08
-2.06588e-08
-2.75223e-08
-2.41481e-08
-3.88823e-08
-2.77694e-08
-5.12632e-08
-3.12304e-08
-6.45592e-08
-3.4098e-08
-7.84696e-08
-3.57917e-08
-9.23583e-08
-3.56319e-08
-1.05067e-07
-3.29866e-08
-1.14729e-07
-2.75479e-08
-1.18708e-07
-1.97039e-08
-1.13849e-07
-1.08505e-08
-9.72555e-08
-3.35512e-09
-6.75244e-08
-2.56937e-08
-7.04397e-10
1.02786e-08
-2.3257e-09
2.6967e-08
-4.35781e-09
3.97382e-08
-6.37749e-09
4.8909e-08
-8.10332e-09
5.50615e-08
-9.38397e-09
5.8825e-08
-1.01647e-08
6.07713e-08
-1.04538e-08
6.13745e-08
-1.02961e-08
6.10047e-08
-9.75553e-09
5.99368e-08
-8.90322e-09
5.83658e-08
-7.81187e-09
5.64223e-08
-6.55245e-09
5.41868e-08
-5.19311e-09
5.17022e-08
-3.79915e-09
4.89829e-08
-2.43339e-09
4.60227e-08
-1.15675e-09
4.28001e-08
-2.8852e-11