# vtk DataFile Version 2.0
track0
ASCII
DATASET POLYDATA
POINTS 12040 float
-0.0205 0.001 1e-05
-0.02052 0.000999985 1e-05
-0.02054 0.000999974 1e-05
-0.02056 0.000999965 1e-05
-0.02058 0.000999959 1e-05
-0.0206 0.000999956 1e-05
-0.0205 0.00367778 1e-05
-0.02052 0.00367778 1e-05
-0.02054 0.00367777 1e-05
-0.02056 0.00367777 1e-05
-0.02058 0.00367777 1e-05
-0.0206 0.00367777 1e-05
-0.0205 0.00635556 1e-05
-0.02052 0.00635555 1e-05
-0.02054 0.00635555 1e-05
-0.02056 0.00635555 1e-05
-0.02058 0.00635555 1e-05
-0.0206 0.00635555 1e-05
-0.0205 0.00903333 1e-05
-0.02052 0.00903333 1e-05
-0.02054 0.00903333 1e-05
-0.02056 0.00903333 1e-05
-0.02058 0.00903333 1e-05
-0.0206 0.00903333 1e-05
-0.0205 0.0117111 1e-05
-0.02052 0.0117111 1e-05
-0.02054 0.0117111 1e-05
-0.02056 0.0117111 1e-05
-0.02058 0.0117111 1e-05
-0.0206 0.0117111 1e-05
-0.0205 0.0143889 1e-05
-0.02052 0.0143889 1e-05
-0.02054 0.0143889 1e-05
-0.02056 0.0143889 1e-05
-0.02058 0.0143889 1e-05
-0.0206 0.0143889 1e-05
-0.0205 0.0170667 1e-05
-0.02052 0.0170667 1e-05
-0.02054 0.0170667 1e-05
-0.02056 0.0170667 1e-05
-0.02058 0.0170667 1e-05
-0.0206 0.0170667 1e-05
-0.0205 0.0197444 1e-05
-0.02052 0.0197444 1e-05
-0.02054 0.0197444 1e-05
-0.02056 0.0197444 1e-05
-0.02058 0.0197444 1e-05
-0.0206 0.0197444 1e-05
-0.0205 0.0224222 1e-05
-0.02052 0.0224222 1e-05
-0.02054 0.0224222 1e-05
-0.02056 0.0224222 1e-05
-0.02058 0.0224222 1e-05
-0.0206 0.0224222 1e-05
-0.0205 0.0251 1e-05
-0.02052 0.0250998 1e-05
-0.02054 0.0250997 1e-05
-0.02056 0.0250995 1e-05
-0.02058 0.0250995 1e-05
-0.0206 0.0250994 1e-05
-0.0205 0.001 1e-05
-0.0202034 0.00100022 1e-05
-0.0199069 0.00100067 1e-05
-0.0196103 0.00100133 1e-05
-0.0193137 0.00100219 1e-05
-0.0190172 0.00100326 1e-05
-0.0187132 0.00100467 1e-05
-0.0184093 0.00100589 1e-05
-0.0181054 0.00100711 1e-05
-0.0178015 0.00100832 1e-05
-0.0174976 0.00100954 1e-05
-0.0172058 0.00101083 1e-05
-0.016914 0.00101193 1e-05
-0.0166222 0.00101303 1e-05
-0.0163305 0.00101413 1e-05
-0.0160387 0.00101523 1e-05
-0.0157586 0.00101637 1e-05
-0.0154784 0.00101745 1e-05
-0.0151983 0.00101856 1e-05
-0.0149182 0.00101971 1e-05
-0.0146381 0.0010209 1e-05
-0.0143744 0.00102209 1e-05
-0.0141108 0.00102327 1e-05
-0.0138471 0.00102449 1e-05
-0.0135835 0.00102574 1e-05
-0.0133608 0.00102682 1e-05
-0.0133473 0.00102688 1e-05
-0.0133339 0.00102695 1e-05
-0.0133204 0.00102702 1e-05
-0.0133069 0.00102708 1e-05
-0.0132934 0.00102715 1e-05
-0.0130353 0.00102844 1e-05
-0.0127771 0.00102974 1e-05
-0.0125189 0.00103106 1e-05
-0.0122607 0.00103239 1e-05
-0.0120025 0.00103374 1e-05
-0.0117547 0.00103505 1e-05
-0.0115068 0.00103637 1e-05
-0.0112589 0.00103769 1e-05
-0.0110111 0.00103901 1e-05
-0.0107632 0.00104034 1e-05
-0.0105252 0.00104161 1e-05
-0.0102873 0.00104289 1e-05
-0.0100493 0.00104417 1e-05
-0.00981133 0.00104545 1e-05
-0.00957337 0.00104673 1e-05
-0.00934491 0.00104794 1e-05
-0.00911645 0.00104917 1e-05
-0.00888799 0.00105038 1e-05
-0.00865954 0.0010516 1e-05
-0.00843108 0.00105281 1e-05
-0.00821175 0.00105397 1e-05
-0.00799242 0.00105512 1e-05
-0.00777309 0.00105628 1e-05
-0.00755376 0.00105742 1e-05
-0.00733443 0.00105857 1e-05
-0.00712387 0.00105966 1e-05
-0.0069133 0.00106075 1e-05
-0.00670273 0.00106183 1e-05
-0.00649216 0.00106291 1e-05
-0.0062816 0.00106399 1e-05
-0.00607944 0.00106501 1e-05
-0.00587729 0.00106604 1e-05
-0.00567514 0.00106706 1e-05
-0.00547298 0.00106807 1e-05
-0.00527083 0.00106908 1e-05
-0.00507675 0.00107004 1e-05
-0.00488267 0.00107101 1e-05
-0.0046886 0.00107197 1e-05
-0.00449452 0.00107292 1e-05
-0.00430044 0.00107387 1e-05
-0.00411412 0.00107477 1e-05
-0.0039278 0.00107568 1e-05
-0.00374147 0.00107658 1e-05
-0.00355515 0.00107748 1e-05
-0.00336883 0.00107837 1e-05
-0.00318995 0.00107922 1e-05
-0.00301107 0.00108007 1e-05
-0.00283219 0.00108092 1e-05
-0.00265331 0.00108176 1e-05
-0.00247443 0.00108261 1e-05
-0.0023027 0.00108341 1e-05
-0.00213097 0.00108421 1e-05
-0.00195924 0.00108502 1e-05
-0.0017875 0.00108582 1e-05
-0.00161577 0.00108661 1e-05
-0.0014509 0.00108737 1e-05
-0.00128603 0.00108813 1e-05
-0.00112116 0.00108889 1e-05
-0.000956289 0.00108965 1e-05
-0.000791418 0.00109041 1e-05
-0.000633135 0.00109114 1e-05
-0.000474851 0.00109186 1e-05
-0.000316567 0.00109259 1e-05
-0.000158284 0.00109331 1e-05
0 0.00109403 1e-05
0.000105677 0.00109451 1e-05
0.000211355 0.00109498 1e-05
0.000317032 0.00109546 1e-05
0.00042271 0.00109593 1e-05
0.000528387 0.00109639 1e-05
0.000634886 0.00109686 1e-05
0.000741385 0.00109732 1e-05
0.000847885 0.00109778 1e-05
0.000954384 0.00109823 1e-05
0.00106088 0.00109869 1e-05
0.00116821 0.00109914 1e-05
0.00127554 0.00109959 1e-05
0.00138286 0.00110003 1e-05
0.00149019 0.00110046 1e-05
0.00159752 0.00110089 1e-05
0.00170568 0.00110132 1e-05
0.00181384 0.00110174 1e-05
0.001922 0.00110215 1e-05
0.00203016 0.00110256 1e-05
0.00213833 0.00110295 1e-05
0.00224733 0.00110334 1e-05
0.00235633 0.00110373 1e-05
0.00246533 0.0011041 1e-05
0.00257434 0.00110447 1e-05
0.00268334 0.00110482 1e-05
0.00279319 0.00110517 1e-05
0.00290304 0.00110552 1e-05
0.00301289 0.00110585 1e-05
0.00312274 0.00110618 1e-05
0.00323259 0.00110651 1e-05
0.00334329 0.00110682 1e-05
0.003454 0.00110713 1e-05
0.0035647 0.00110743 1e-05
0.0036754 0.00110772 1e-05
0.00378611 0.00110801 1e-05
0.00389767 0.00110828 1e-05
0.00400924 0.00110856 1e-05
0.0041208 0.00110882 1e-05
0.00423237 0.00110908 1e-05
0.00434393 0.00110933 1e-05
0.00445636 0.00110957 1e-05
0.00456879 0.0011098 1e-05
0.00468123 0.00111003 1e-05
0.00479366 0.00111026 1e-05
0.00490609 0.00111047 1e-05
0.0050194 0.00111067 1e-05
0.0051327 0.00111087 1e-05
0.00524601 0.00111106 1e-05
0.00535932 0.00111125 1e-05
0.00547262 0.00111142 1e-05
0.00558681 0.00111159 1e-05
0.005701 0.00111175 1e-05
0.00581518 0.00111191 1e-05
0.00592937 0.00111206 1e-05
0.00604356 0.0011122 1e-05
0.00615863 0.00111233 1e-05
0.00627371 0.00111246 1e-05
0.00638878 0.00111257 1e-05
0.00650386 0.00111269 1e-05
0.00661893 0.00111279 1e-05
0.0067349 0.00111288 1e-05
0.00685087 0.00111297 1e-05
0.00696684 0.00111306 1e-05
0.00708281 0.00111313 1e-05
0.00719878 0.0011132 1e-05
0.00727027 0.00111323 1e-05
0.00734176 0.00111327 1e-05
0.00741325 0.0011133 1e-05
0.00748473 0.00111333 1e-05
0.00755386 0.00111335 1e-05
0.00759971 0.00111337 1e-05
0.00764557 0.00111338 1e-05
0.00769142 0.00111339 1e-05
0.00773728 0.0011134 1e-05
0.00778313 0.00111341 1e-05
0.00790091 0.00111343 1e-05
0.00801869 0.00111345 1e-05
0.00813647 0.00111345 1e-05
0.00825425 0.00111345 1e-05
0.00837203 0.00111344 1e-05
0.00849073 0.00111342 1e-05
0.00860942 0.0011134 1e-05
0.00872812 0.00111336 1e-05
0.00884682 0.00111332 1e-05
0.00896551 0.00111328 1e-05
0.00908513 0.00111321 1e-05
0.00920475 0.00111315 1e-05
0.00932437 0.00111307 1e-05
0.00944398 0.00111299 1e-05
0.0095636 0.00111291 1e-05
0.00968415 0.0011128 1e-05
0.0098047 0.00111269 1e-05
0.00992525 0.00111258 1e-05
0.0100458 0.00111246 1e-05
0.0101663 0.00111233 1e-05
0.0102878 0.00111218 1e-05
0.0104093 0.00111203 1e-05
0.0105308 0.00111188 1e-05
0.0106523 0.00111171 1e-05
0.0107738 0.00111154 1e-05
0.0108962 0.00111135 1e-05
0.0110186 0.00111116 1e-05
0.0111411 0.00111096 1e-05
0.0112635 0.00111075 1e-05
0.0113859 0.00111054 1e-05
0.0115093 0.0011103 1e-05
0.0116327 0.00111006 1e-05
0.0117561 0.00110982 1e-05
0.0118795 0.00110957 1e-05
0.0120028 0.00110931 1e-05
0.0121272 0.00110902 1e-05
0.0122515 0.00110874 1e-05
0.0123759 0.00110846 1e-05
0.0125002 0.00110816 1e-05
0.0126245 0.00110786 1e-05
0.0127498 0.00110753 1e-05
0.0128752 0.0011072 1e-05
0.0130005 0.00110687 1e-05
0.0131258 0.00110652 1e-05
0.0132511 0.00110617 1e-05
0.0133774 0.0011058 1e-05
0.0135036 0.00110542 1e-05
0.0136299 0.00110504 1e-05
0.0137562 0.00110465 1e-05
0.0138825 0.00110425 1e-05
0.0140098 0.00110383 1e-05
0.014137 0.00110341 1e-05
0.0142643 0.00110298 1e-05
0.0143915 0.00110254 1e-05
0.0145188 0.0011021 1e-05
0.0146471 0.00110163 1e-05
0.0147753 0.00110116 1e-05
0.0149036 0.00110068 1e-05
0.0150318 0.00110019 1e-05
0.0151601 0.00109969 1e-05
0.0152893 0.00109918 1e-05
0.0154186 0.00109866 1e-05
0.0155478 0.00109813 1e-05
0.0156771 0.00109759 1e-05
0.0158063 0.00109704 1e-05
0.0159366 0.00109648 1e-05
0.0160668 0.00109591 1e-05
0.0161971 0.00109533 1e-05
0.0163274 0.00109474 1e-05
0.0164576 0.00109415 1e-05
0.0165889 0.00109354 1e-05
0.0167201 0.00109291 1e-05
0.0168514 0.00109228 1e-05
0.0169827 0.00109165 1e-05
0.0171139 0.001091 1e-05
0.0172462 0.00109034 1e-05
0.0173785 0.00108967 1e-05
0.0175108 0.00108899 1e-05
0.0176431 0.0010883 1e-05
0.0177754 0.0010876 1e-05
0.0179087 0.0010869 1e-05
0.018042 0.00108618 1e-05
0.0181753 0.00108544 1e-05
0.0183087 0.0010847 1e-05
0.018442 0.00108395 1e-05
0.0185763 0.0010832 1e-05
0.0187107 0.00108243 1e-05
0.018845 0.00108164 1e-05
0.0189794 0.00108085 1e-05
0.0191137 0.00108005 1e-05
0.0192491 0.00107925 1e-05
0.0193845 0.00107843 1e-05
0.0195199 0.00107759 1e-05
0.0196553 0.00107674 1e-05
0.0197907 0.0010759 1e-05
0.0199272 0.00107505 1e-05
0.0200636 0.00107418 1e-05
0.0202001 0.00107329 1e-05
0.0203365 0.00107239 1e-05
0.020473 0.00107149 1e-05
0.0206105 0.00107059 1e-05
0.020748 0.00106967 1e-05
0.0208855 0.00106873 1e-05
0.021023 0.00106778 1e-05
0.0211606 0.00106683 1e-05
0.0212991 0.00106589 1e-05
0.0214377 0.00106492 1e-05
0.0215763 0.00106392 1e-05
0.0217149 0.00106292 1e-05
0.0218535 0.00106192 1e-05
0.0219931 0.00106093 1e-05
0.0221328 0.00105991 1e-05
0.0222724 0.00105886 1e-05
0.0224121 0.00105781 1e-05
0.0225517 0.00105676 1e-05
0.0226925 0.00105572 1e-05
0.0228332 0.00105464 1e-05
0.022974 0.00105355 1e-05
0.0231147 0.00105244 1e-05
0.0232555 0.00105134 1e-05
0.0233973 0.00105025 1e-05
0.0235391 0.00104913 1e-05
0.023681 0.00104798 1e-05
0.0238228 0.00104682 1e-05
0.0239647 0.00104567 1e-05
0.0241076 0.00104452 1e-05
0.0242505 0.00104335 1e-05
0.0243935 0.00104215 1e-05
0.0245364 0.00104094 1e-05
0.0246794 0.00103974 1e-05
0.0248234 0.00103854 1e-05
0.0249675 0.00103732 1e-05
0.0251115 0.00103606 1e-05
0.0252556 0.0010348 1e-05
[...]
POINT_DATA 12040
 FIELD attributes 2
p 1 12040 float
-4.82146 -4.81815 -4.81484 -4.81153 -4.80822 -4.80492
-4.97445 -4.97443 -4.97441 -4.97438 -4.97436 -4.97434
-5.14821 -5.14809 -5.14797 -5.14784 -5.14772 -5.14761
-5.24116 -5.2411 -5.24105 -5.24099 -5.24094 -5.24089
-5.28588 -5.28576 -5.28565 -5.28554 -5.28542 -5.28531
-5.29211 -5.29195 -5.29179 -5.29163 -5.29147 -5.29131
-5.26495 -5.26488 -5.26481 -5.26474 -5.26467 -5.2646
-5.19524 -5.1952 -5.19516 -5.19512 -5.19508 -5.19504
-5.07393 -5.07394 -5.07395 -5.07395 -5.07396 -5.07396
-2.8614 -2.88073 -2.89992 -2.91898 -2.93791 -2.95671
-4.82146 -4.82079 -4.81723 -4.81358 -4.80986 -4.8016 -4.81553 -4.83056 -4.8456 -4.86065 -4.88513 -4.90692 -4.93689 -4.96685 -4.99682 -5.02959 -5.04528 -5.06701 -5.08875 -5.11048 -5.13384 -5.15277 -5.17372 -5.19467 -5.21562 -5.23332 -5.23439 -5.23546 -5.23652 -5.23759 -5.23866 -5.26036 -5.28206 -5.30377 -5.32547 -5.34691 -5.36572 -5.38434 -5.40296 -5.42159 -5.43964 -5.45532 -5.47073 -5.48613 -5.50154 -5.51639 -5.53024 -5.54384 -5.55744 -5.57104 -5.58419 -5.59698 -5.60951 -5.62204 -5.63458 -5.64669 -5.65858 -5.67018 -5.68177 -5.69337 -5.70454 -5.71562 -5.72643 -5.73724 -5.74804 -5.75849 -5.76896 -5.77916 -5.78936 -5.79956 -5.80944 -5.81942 -5.8292 -5.83899 -5.84878 -5.85835 -5.86802 -5.87742 -5.88682 -5.89623 -5.90541 -5.91487 -5.92446 -5.93404 -5.94363 -5.95336 -5.96329 -5.97297 -5.98266 -5.99234 -6.00185 -6.01184 -6.02268 -6.03351 -6.04435 -6.05537 -6.06533 -6.07603 -6.08674 -6.09744 -6.10769 -6.11699 -6.12581 -6.13464 -6.14347 -6.15149 -6.15864 -6.16681 -6.17499 -6.18317 -6.19208 -6.20025 -6.20886 -6.21747 -6.22608 -6.2348 -6.24293 -6.25006 -6.2572 -6.26434 -6.27063 -6.27733 -6.28275 -6.28816 -6.29358 -6.29795 -6.30358 -6.30817 -6.31276 -6.31735 -6.32099 -6.32587 -6.32985 -6.33383 -6.33781 -6.34098 -6.3449 -6.34806 -6.35123 -6.3544 -6.35696 -6.35986 -6.36222 -6.36457 -6.36693 -6.36892 -6.37108 -6.3729 -6.37472 -6.37653 -6.37816 -6.37997 -6.38156 -6.38316 -6.38475 -6.38626 -6.38787 -6.38937 -6.39087 -6.39237 -6.39384 -6.39474 -6.3956 -6.39646 -6.39732 -6.39815 -6.39871 -6.39926 -6.39981 -6.40037 -6.40096 -6.40226 -6.40361 -6.40496 -6.40631 -6.40785 -6.40898 -6.41032 -6.41167 -6.41302 -6.41479 -6.41571 -6.4171 -6.41848 -6.41987 -6.42197 -6.42268 -6.42417 -6.42566 -6.42715 -6.42972 -6.43025 -6.43187 -6.43349 -6.43511 -6.43815 -6.43846 -6.44017 -6.44189 -6.4436 -6.44708 -6.44718 -6.44901 -6.45083 -6.45265 -6.4566 -6.45656 -6.45852 -6.46048 -6.46244 -6.46683 -6.4667 -6.46881 -6.47091 -6.47302 -6.47777 -6.4776 -6.47984 -6.48208 -6.48433 -6.4894 -6.48921 -6.4916 -6.49399 -6.49654 -6.50172 -6.50184 -6.50412 -6.50665 -6.50962 -6.51475 -6.51521 -6.51741 -6.52009 -6.52343 -6.52851 -6.52932 -6.53148 -6.5343 -6.53797 -6.54298 -6.54415 -6.54631 -6.54928 -6.55323 -6.55816 -6.55968 -6.56188 -6.565 -6.56918 -6.57404 -6.57589 -6.57817 -6.58144 -6.58581 -6.5906 -6.59277 -6.59517 -6.59857 -6.6031 -6.60783 -6.61031 -6.61284 -6.61638 -6.62103 -6.62571 -6.62847 -6.63123 -6.63492 -6.63957 -6.64422 -6.64724 -6.65026 -6.65408 -6.65872 -6.66336 -6.66662 -6.66989 -6.67384 -6.67848 -6.68312 -6.68663 -6.69014 -6.69421 -6.69885 -6.70348 -6.70722 -6.71097 -6.71514 -6.71976 -6.72438 -6.72831 -6.73225 -6.73652 -6.74111 -6.74571 -6.74979 -6.75388 -6.75823 -6.76283 -6.76743 -6.77164 -6.77585 -6.78028 -6.7849 -6.78953 -6.79384 -6.79818 -6.80268 -6.80732 -6.81198 -6.81638 -6.82082 -6.82538 -6.83004 -6.83475 -6.83921 -6.84374 -6.84837 -6.85306 -6.85781 -6.86233 -6.86694 -6.87161 -6.87633 -6.88112 -6.88569 -6.89035 -6.89507 -6.8998 -6.90462 -6.90922 -6.91394 -6.91868 -6.92342 -6.92827 -6.93288 -6.93764 -6.9424 -6.94715 -6.952 -6.95665 -6.96141 -6.96617 -6.97094 -6.97577 -6.98043 -6.98519 -6.98995 -6.9947 -6.99951 -7.00418 -7.00891 -7.01365 -7.01839 -7.02316 -7.02782 -7.03252 -7.03723 -7.04193 -7.04666 -7.05128 -7.05594 -7.0606 -7.06525 -7.06992 -7.07248 -7.07505 -7.07762 -7.08019 -7.0827 -7.08474 -7.08677 -7.08881 -7.09084 -7.09289 -7.0974 -7.10192 -7.10644 -7.11096 -7.1155 -7.11992 -7.12435 -7.12878 -7.1332 -7.13765 -7.14198 -7.1463 -7.15062 -7.15494 -7.15928 -7.16349 -7.16769 -7.17188 -7.17608 -7.18029 -7.18438 -7.18843 -7.19247 -7.19652 -7.20057 -7.20451 -7.20839 -7.21226 -7.21613 -7.21999 -7.22377 -7.22747 -7.23116 -7.23483 -7.23849 -7.24208 -7.2456 -7.24907 -7.25252 -7.25595 -7.25932 -7.26264 -7.26588 -7.26907 -7.27224 -7.27537 -7.27847 -7.28144 -7.28434 -7.28723 -7.29009 -7.29295 -7.29564 -7.29822 -7.3008 -7.30337 -7.30594 -7.30833 -7.31057 -7.31281 -7.31506 -7.31732 -7.31938 -7.32127 -7.32315 -7.32505 -7.32696 -7.32868 -7.33017 -7.33166 -7.33319 -7.33472 -7.33607 -7.33714 -7.33822 -7.33934 -7.34044 -7.34136 -7.34204 -7.34267 -7.34335 -7.34396 -7.34443 -7.34471 -7.34486 -7.34508 -7.34516 -7.34514 -7.345 -7.34465 -7.34437 -7.34388 -7.34333 -7.34276 -7.34188 -7.34106 -7.33996 -7.33887 -7.33777 -7.33639 -7.33493 -7.33325 -7.33158 -7.3299 -7.32802 -7.32589 -7.32359 -7.3213 -7.31901 -7.31662 -7.31397 -7.31123 -7.3085 -7.30577 -7.30321 -7.30297 -7.30274 -7.3025 -7.30226 -7.30202 -7.29846 -7.29489 -7.29133 -7.28777 -7.28408 -7.27996 -7.27568 -7.27141 -7.26714 -7.26261 -7.25792 -7.25291 -7.24789 -7.24289 -7.23746 -7.23218 -7.22639 -7.22061 -7.21476 -7.20847 -7.20241 -7.19599 -7.18941 -7.18259 -7.17547 -7.1686 -7.16154 -7.15412 -7.14629 -7.13831 -7.13059 -7.12288 -7.11457 -7.1057 -7.09684 -7.08824 -7.07965 -7.07047 -7.06069 -7.05091 -7.0414 -7.0319 -7.02181 -7.01108 -7.00036 -6.98992 -6.97946 -6.96837 -6.95675 -6.94505 -6.93365 -6.92198 -6.9099 -6.89753 -6.88484 -6.87245 -6.85953 -6.84644 -6.83331 -6.81959 -6.80611 -6.79197 -6.77783 -6.76371 -6.74918 -6.73437 -6.71917 -6.70397 -6.68878 -6.67347 -6.66693 -6.66026 -6.6536 -6.64694 -6.64046 -6.63089 -6.62132 -6.61175 -6.60218 -6.59245 -6.57536 -6.55811 -6.54087 -6.52364 -6.50597 -6.48803 -6.46967 -6.45131 -6.4329 -6.41386 -6.3949 -6.37558 -6.3561 -6.33623 -6.31603 -6.29593 -6.27577 -6.25513 -6.23377 -6.2124 -6.19114 -6.16988 -6.14799 -6.12544 -6.10289 -6.08045 -6.05802 -6.03488 -6.01116 -5.98742 -5.9638 -5.93985 -5.91546 -5.89088 -5.86594 -5.84113 -5.81558 -5.78998 -5.76438 -5.7384 -5.71202 -5.6852 -5.65839 -5.63158 -5.60475 -5.60294 -5.6011 -5.59925 -5.59741 -5.59558 -5.56946 -5.54334 -5.51724 -5.49114 -5.46477 -5.43581 -5.40664 -5.37749 -5.34833 -5.31861 -5.28855 -5.25828 -5.22791 -5.19722 -5.16627 -5.135 -5.10375 -5.0721 -5.03994 -5.00777 -4.97529 -4.94281 -4.90986 -4.87648 -4.84311 -4.80941 -4.77557 -4.7413 -4.70689 -4.67231 -4.63743 -4.60203 -4.56657 -4.53111 -4.49544 -4.46458 -4.43341 -4.40225 -4.37109 -4.34159 -4.33579 -4.32999 -4.32419 -4.31839 -4.31253 -4.27484 -4.23711 -4.1994 -4.1617 -4.12353 -4.08494 -4.04607 -4.00721 -3.96814 -3.92864 -3.88892 -3.84916 -3.80917 -3.76856 -3.72793 -3.68709 -3.64627 -3.60496 -3.56325 -3.52153 -3.4796 -3.43748 -3.39495 -3.35233 -3.30954 -3.26654 -3.22294 -3.17936 -3.13578 -3.09209 -3.07325 -3.05424 -3.03523 -3.01622 -2.99769 -2.97203 -2.94638 -2.92074 -2.8951 -2.86919 -2.82379 -2.77826 -2.73274 -2.68717 -2.64101 -2.59474 -2.54838 -2.5019 -2.45493 -2.40784 -2.36062 -2.31341 -2.2658 -2.21783 -2.16983 -2.12171 -2.07342 -2.02475 -1.97604 -1.92719 -1.87815 -1.82864 -1.77913 -1.72963 -1.68008 -1.67094 -1.66173 -1.65252 -1.64331 -1.63419 -1.59311 -1.55204 -1.51097 -1.46992 -1.42848 -1.37759 -1.32658 -1.27558 -1.22437 -1.17282 -1.12121 -1.0696 -1.0178 -0.965598 -0.913372 -0.861075 -0.808774 -0.756028 -0.703219 -0.650351 -0.597409 -0.544097 -0.490736 -0.437384 -0.383968 -0.366046 -0.348012 -0.32998 -0.311949 -0.294234 -0.258281 -0.222331 -0.186387 -0.150446 -0.114243 -0.059846 -0.00542189 0.0489921 0.103557 0.158382 0.21325 0.268106 0.323056 0.378244 0.433468 0.488741 0.544055 0.599615 0.655163 0.710745 0.766402 0.8223 0.878188 0.934067 0.989983 0.990935 0.99189 0.992846 0.993802 0.994757 1.05002 1.10528 1.16052 1.21576 1.27128 1.32778 1.38424 1.44067 1.49728 1.55398 1.61068 1.66737 1.72417 1.78095 1.83778 1.89462 1.95155 2.00851 2.06545 2.1224 2.14111 2.15986 2.1786 2.19735 2.21581 2.25419 2.29257 2.33095 2.36932 2.4078 2.46501 2.52211 2.5792 2.63633 2.69354 2.75072 2.80789 2.86503 2.92208 2.97918 3.03627 3.09334 3.1504 3.20745 3.26445 3.28378 3.30308 3.32238 3.34169 3.36071 3.39844 3.43616 3.47389 3.5116 3.54932 3.60629 3.66311 3.71989 3.77661 3.83336 3.89007 3.94677 4.00335 4.05973 4.11615 4.17254 4.22879 4.285 4.3412 4.39741 4.40334 4.40926 4.41516 4.42107 4.42696 4.47705 4.52715 4.57723 4.62731 4.67727 4.73308 4.7888 4.84436 4.89971 4.9551 5.01043 5.06572 5.12078 5.17575 5.23061 5.26781 5.30484 5.34183 5.37883 5.41504 5.43279 5.45054 5.46829 5.48603 5.5037 5.55803 5.6122 5.66636 5.72038 5.7743 5.82809 5.88188 5.93539 5.98859 6.04183 6.09497 6.14783 6.20059 6.25335 6.3061 6.31101 6.31589 6.32076 6.32563 6.33049 6.37793 6.42538 6.47281 6.52021 6.56735 6.6192 6.67102 6.72252 6.77372 6.82495 6.87601 6.92693 6.97757 7.02822 7.07865 7.09872 7.11865 7.13855 7.15845 7.17824 7.20838 7.23852 7.26865 7.29873 7.3286 7.37818 7.42758 7.47687 7.5257 7.57452 7.62321 7.67181 7.71999 7.76811 7.816 7.83953 7.86285 7.88612 7.90938 7.93261 7.9568 7.98098 8.00516 8.02928 8.0532 8.10017 8.14692 8.19359 8.2398 8.28593 8.33193 8.37787 8.4233 8.46867 8.5138 8.53659 8.55917 8.58167 8.60417 8.62681 8.64891 8.67101 8.69311 8.71515 8.73697 8.78108 8.82497 8.86878 8.91211 8.95534 8.9984 9.04141 9.0839 9.12631 9.16848 9.18993 9.21115 9.2323 9.25345 9.2749 9.29532 9.31573 9.33614 9.35649 9.37662 9.41768 9.4585 9.49927 9.53955 9.57971 9.61967 9.6596 9.69899 9.73827 9.77733 9.79984 9.82208 9.84426 9.86643 9.8892 9.90536 9.92151 9.93767 9.95378 9.9697 10.0076 10.0451 10.0827 10.1199 10.1569 10.1936 10.2304 10.2666 10.3026 10.3385 10.367 10.3952 10.4233 10.4514 10.4809 10.4877 10.4944 10.5011 10.5079 10.5145 10.5489 10.5832 10.6175 10.6516 10.6854 10.7188 10.7523 10.7853 10.818 10.8506 10.8829 10.9149 10.9467 10.9785 11.01 11.0201 11.03 11.0399 11.0498 11.06 11.0809 11.1018 11.1228 11.1437 11.1643 11.1945 11.2244 11.2543 11.2838 11.3132 11.3423 11.3713 11.4 11.4283 11.4565 11.4844 11.5121 11.5397 11.5673 11.5946 11.6048 11.6147 11.6246 11.6345 11.6451 11.6614 11.6777 11.694 11.7104 11.7264 11.7519 11.7777 11.8035 11.8298 11.8567 11.8832 11.9096 11.9302 11.9457 11.9611 11.9759 11.9906 12.016 12.0494 12.0834 12.1168 12.1353 12.1493 12.1634 12.1765 12.1766 12.177 12.1773 12.1777 12.1781 12.1843 12.1905 12.1967 12.2037 12.2149 12.2258 12.2366 12.2466 12.2559 12.2651 12.2734 12.2809 12.287 12.2931 12.2978 12.2996 12.3007 12.3017 12.3027 12.3038 12.3052 12.3066 12.308 12.3093 12.31 12.3099 12.3086 12.3073 12.3051 12.3021 12.2974 12.2926 12.2862 12.278 12.2698 12.2598 12.2486 12.2362 12.2238 12.2098 12.1996 12.1878 12.1761 12.1643 12.1507 12.1445 12.1383 12.132 12.1258 12.1189 12.0953 12.0707 12.046 12.0207 11.9934 11.963 11.932 11.899 11.8632 11.8272 11.788 11.7487 11.7064 11.6608 11.6152 11.5659 11.5143 11.461 11.4077 11.3513 11.2944 11.2345 11.1745 11.1144 11.0382 11.0365 11.0348 11.0331 11.0314 11.0296 10.9534 10.8771 10.8006 10.724 10.644 10.557 10.466 10.3749 10.282 10.1855 10.0834 9.97975 9.87183 9.75766 9.64283 9.52185 9.40079 9.27425 9.14241 9.01046 8.87183 8.73292 8.58255 8.42401 8.26389 8.09616 7.92741 7.75772 7.58758 7.41601 7.23651 7.02685 6.81693 6.60707 6.38001 6.14734 5.93118 5.71499 5.49875 5.28639 5.20412 5.10492 5.00577 4.90667 4.79503 4.58606 4.37688 4.16748 3.95786 3.71604 3.39787 3.13838 2.87812 2.61715 2.49438 2.37779 1.94244 1.51224 0.943441 0