# vtk DataFile Version 2.0
track0
ASCII
DATASET POLYDATA
POINTS 12040 float
-0.0205 0.001 1e-05
-0.02052 0.000999985 1e-05
-0.02054 0.000999974 1e-05
-0.02056 0.000999965 1e-05
-0.02058 0.000999959 1e-05
-0.0206 0.000999956 1e-05
-0.0205 0.00367778 1e-05
-0.02052 0.00367778 1e-05
-0.02054 0.00367777 1e-05
-0.02056 0.00367777 1e-05
-0.02058 0.00367777 1e-05
-0.0206 0.00367777 1e-05
-0.0205 0.00635556 1e-05
-0.02052 0.00635555 1e-05
-0.02054 0.00635555 1e-05
-0.02056 0.00635555 1e-05
-0.02058 0.00635555 1e-05
-0.0206 0.00635555 1e-05
-0.0205 0.00903333 1e-05
-0.02052 0.00903333 1e-05
-0.02054 0.00903333 1e-05
-0.02056 0.00903333 1e-05
-0.02058 0.00903333 1e-05
-0.0206 0.00903333 1e-05
-0.0205 0.0117111 1e-05
-0.02052 0.0117111 1e-05
-0.02054 0.0117111 1e-05
-0.02056 0.0117111 1e-05
-0.02058 0.0117111 1e-05
-0.0206 0.0117111 1e-05
-0.0205 0.0143889 1e-05
-0.02052 0.0143889 1e-05
-0.02054 0.0143889 1e-05
-0.02056 0.0143889 1e-05
-0.02058 0.0143889 1e-05
-0.0206 0.0143889 1e-05
-0.0205 0.0170667 1e-05
-0.02052 0.0170667 1e-05
-0.02054 0.0170667 1e-05
-0.02056 0.0170667 1e-05
-0.02058 0.0170667 1e-05
-0.0206 0.0170667 1e-05
-0.0205 0.0197444 1e-05
-0.02052 0.0197444 1e-05
-0.02054 0.0197444 1e-05
-0.02056 0.0197444 1e-05
-0.02058 0.0197444 1e-05
-0.0206 0.0197444 1e-05
-0.0205 0.0224222 1e-05
-0.02052 0.0224222 1e-05
-0.02054 0.0224222 1e-05
-0.02056 0.0224222 1e-05
-0.02058 0.0224222 1e-05
-0.0206 0.0224222 1e-05
-0.0205 0.0251 1e-05
-0.02052 0.0250998 1e-05
-0.02054 0.0250997 1e-05
-0.02056 0.0250995 1e-05
-0.02058 0.0250995 1e-05
-0.0206 0.0250994 1e-05
-0.0205 0.001 1e-05
-0.0202034 0.00100022 1e-05
-0.0199069 0.00100067 1e-05
-0.0196103 0.00100133 1e-05
-0.0193137 0.00100219 1e-05
-0.0190172 0.00100326 1e-05
-0.0187132 0.00100467 1e-05
-0.0184093 0.00100589 1e-05
-0.0181054 0.00100711 1e-05
-0.0178015 0.00100832 1e-05
-0.0174976 0.00100954 1e-05
-0.0172058 0.00101083 1e-05
-0.016914 0.00101193 1e-05
-0.0166222 0.00101303 1e-05
-0.0163305 0.00101413 1e-05
-0.0160387 0.00101523 1e-05
-0.0157586 0.00101637 1e-05
-0.0154784 0.00101745 1e-05
-0.0151983 0.00101856 1e-05
-0.0149182 0.00101971 1e-05
-0.0146381 0.0010209 1e-05
-0.0143744 0.00102209 1e-05
-0.0141108 0.00102327 1e-05
-0.0138471 0.00102449 1e-05
-0.0135835 0.00102574 1e-05
-0.0133608 0.00102682 1e-05
-0.0133473 0.00102688 1e-05
-0.0133339 0.00102695 1e-05
-0.0133204 0.00102702 1e-05
-0.0133069 0.00102708 1e-05
-0.0132934 0.00102715 1e-05
-0.0130353 0.00102844 1e-05
-0.0127771 0.00102974 1e-05
-0.0125189 0.00103106 1e-05
-0.0122607 0.00103239 1e-05
-0.0120025 0.00103374 1e-05
-0.0117547 0.00103505 1e-05
-0.0115068 0.00103637 1e-05
-0.0112589 0.00103769 1e-05
-0.0110111 0.00103901 1e-05
-0.0107632 0.00104034 1e-05
-0.0105252 0.00104161 1e-05
-0.0102873 0.00104289 1e-05
-0.0100493 0.00104417 1e-05
-0.00981133 0.00104545 1e-05
-0.00957337 0.00104673 1e-05
-0.00934491 0.00104794 1e-05
-0.00911645 0.00104917 1e-05
-0.00888799 0.00105038 1e-05
-0.00865954 0.0010516 1e-05
-0.00843108 0.00105281 1e-05
-0.00821175 0.00105397 1e-05
-0.00799242 0.00105512 1e-05
-0.00777309 0.00105628 1e-05
-0.00755376 0.00105742 1e-05
-0.00733443 0.00105857 1e-05
-0.00712387 0.00105966 1e-05
-0.0069133 0.00106075 1e-05
-0.00670273 0.00106183 1e-05
-0.00649216 0.00106291 1e-05
-0.0062816 0.00106399 1e-05
-0.00607944 0.00106501 1e-05
-0.00587729 0.00106604 1e-05
-0.00567514 0.00106706 1e-05
-0.00547298 0.00106807 1e-05
-0.00527083 0.00106908 1e-05
-0.00507675 0.00107004 1e-05
-0.00488267 0.00107101 1e-05
-0.0046886 0.00107197 1e-05
-0.00449452 0.00107292 1e-05
-0.00430044 0.00107387 1e-05
-0.00411412 0.00107477 1e-05
-0.0039278 0.00107568 1e-05
-0.00374147 0.00107658 1e-05
-0.00355515 0.00107748 1e-05
-0.00336883 0.00107837 1e-05
-0.00318995 0.00107922 1e-05
-0.00301107 0.00108007 1e-05
-0.00283219 0.00108092 1e-05
-0.00265331 0.00108176 1e-05
-0.00247443 0.00108261 1e-05
-0.0023027 0.00108341 1e-05
-0.00213097 0.00108421 1e-05
-0.00195924 0.00108502 1e-05
-0.0017875 0.00108582 1e-05
-0.00161577 0.00108661 1e-05
-0.0014509 0.00108737 1e-05
-0.00128603 0.00108813 1e-05
-0.00112116 0.00108889 1e-05
-0.000956289 0.00108965 1e-05
-0.000791418 0.00109041 1e-05
-0.000633135 0.00109114 1e-05
-0.000474851 0.00109186 1e-05
-0.000316567 0.00109259 1e-05
-0.000158284 0.00109331 1e-05
0 0.00109403 1e-05
0.000105677 0.00109451 1e-05
0.000211355 0.00109498 1e-05
0.000317032 0.00109546 1e-05
0.00042271 0.00109593 1e-05
0.000528387 0.00109639 1e-05
0.000634886 0.00109686 1e-05
0.000741385 0.00109732 1e-05
0.000847885 0.00109778 1e-05
0.000954384 0.00109823 1e-05
0.00106088 0.00109869 1e-05
0.00116821 0.00109914 1e-05
0.00127554 0.00109959 1e-05
0.00138286 0.00110003 1e-05
0.00149019 0.00110046 1e-05
0.00159752 0.00110089 1e-05
0.00170568 0.00110132 1e-05
0.00181384 0.00110174 1e-05
0.001922 0.00110215 1e-05
0.00203016 0.00110256 1e-05
0.00213833 0.00110295 1e-05
0.00224733 0.00110334 1e-05
0.00235633 0.00110373 1e-05
0.00246533 0.0011041 1e-05
0.00257434 0.00110447 1e-05
0.00268334 0.00110482 1e-05
0.00279319 0.00110517 1e-05
0.00290304 0.00110552 1e-05
0.00301289 0.00110585 1e-05
0.00312274 0.00110618 1e-05
0.00323259 0.00110651 1e-05
0.00334329 0.00110682 1e-05
0.003454 0.00110713 1e-05
0.0035647 0.00110743 1e-05
0.0036754 0.00110772 1e-05
0.00378611 0.00110801 1e-05
0.00389767 0.00110828 1e-05
0.00400924 0.00110856 1e-05
0.0041208 0.00110882 1e-05
0.00423237 0.00110908 1e-05
0.00434393 0.00110933 1e-05
0.00445636 0.00110957 1e-05
0.00456879 0.0011098 1e-05
0.00468123 0.00111003 1e-05
0.00479366 0.00111026 1e-05
0.00490609 0.00111047 1e-05
0.0050194 0.00111067 1e-05
0.0051327 0.00111087 1e-05
0.00524601 0.00111106 1e-05
0.00535932 0.00111125 1e-05
0.00547262 0.00111142 1e-05
0.00558681 0.00111159 1e-05
0.005701 0.00111175 1e-05
0.00581518 0.00111191 1e-05
0.00592937 0.00111206 1e-05
0.00604356 0.0011122 1e-05
0.00615863 0.00111233 1e-05
0.00627371 0.00111246 1e-05
0.00638878 0.00111257 1e-05
0.00650386 0.00111269 1e-05
0.00661893 0.00111279 1e-05
0.0067349 0.00111288 1e-05
0.00685087 0.00111297 1e-05
0.00696684 0.00111306 1e-05
0.00708281 0.00111313 1e-05
0.00719878 0.0011132 1e-05
0.00727027 0.00111323 1e-05
0.00734176 0.00111327 1e-05
0.00741325 0.0011133 1e-05
0.00748473 0.00111333 1e-05
0.00755386 0.00111335 1e-05
0.00759971 0.00111337 1e-05
0.00764557 0.00111338 1e-05
0.00769142 0.00111339 1e-05
0.00773728 0.0011134 1e-05
0.00778313 0.00111341 1e-05
0.00790091 0.00111343 1e-05
0.00801869 0.00111345 1e-05
0.00813647 0.00111345 1e-05
0.00825425 0.00111345 1e-05
0.00837203 0.00111344 1e-05
0.00849073 0.00111342 1e-05
0.00860942 0.0011134 1e-05
0.00872812 0.00111336 1e-05
0.00884682 0.00111332 1e-05
0.00896551 0.00111328 1e-05
0.00908513 0.00111321 1e-05
0.00920475 0.00111315 1e-05
0.00932437 0.00111307 1e-05
0.00944398 0.00111299 1e-05
0.0095636 0.00111291 1e-05
0.00968415 0.0011128 1e-05
0.0098047 0.00111269 1e-05
0.00992525 0.00111258 1e-05
0.0100458 0.00111246 1e-05
0.0101663 0.00111233 1e-05
0.0102878 0.00111218 1e-05
0.0104093 0.00111203 1e-05
0.0105308 0.00111188 1e-05
0.0106523 0.00111171 1e-05
0.0107738 0.00111154 1e-05
0.0108962 0.00111135 1e-05
0.0110186 0.00111116 1e-05
0.0111411 0.00111096 1e-05
0.0112635 0.00111075 1e-05
0.0113859 0.00111054 1e-05
0.0115093 0.0011103 1e-05
0.0116327 0.00111006 1e-05
0.0117561 0.00110982 1e-05
0.0118795 0.00110957 1e-05
0.0120028 0.00110931 1e-05
0.0121272 0.00110902 1e-05
0.0122515 0.00110874 1e-05
0.0123759 0.00110846 1e-05
0.0125002 0.00110816 1e-05
0.0126245 0.00110786 1e-05
0.0127498 0.00110753 1e-05
0.0128752 0.0011072 1e-05
0.0130005 0.00110687 1e-05
0.0131258 0.00110652 1e-05
0.0132511 0.00110617 1e-05
0.0133774 0.0011058 1e-05
0.0135036 0.00110542 1e-05
0.0136299 0.00110504 1e-05
0.0137562 0.00110465 1e-05
0.0138825 0.00110425 1e-05
0.0140098 0.00110383 1e-05
0.014137 0.00110341 1e-05
0.0142643 0.00110298 1e-05
0.0143915 0.00110254 1e-05
0.0145188 0.0011021 1e-05
0.0146471 0.00110163 1e-05
0.0147753 0.00110116 1e-05
0.0149036 0.00110068 1e-05
0.0150318 0.00110019 1e-05
0.0151601 0.00109969 1e-05
0.0152893 0.00109918 1e-05
0.0154186 0.00109866 1e-05
0.0155478 0.00109813 1e-05
0.0156771 0.00109759 1e-05
0.0158063 0.00109704 1e-05
0.0159366 0.00109648 1e-05
0.0160668 0.00109591 1e-05
0.0161971 0.00109533 1e-05
0.0163274 0.00109474 1e-05
0.0164576 0.00109415 1e-05
0.0165889 0.00109354 1e-05
0.0167201 0.00109291 1e-05
0.0168514 0.00109228 1e-05
0.0169827 0.00109165 1e-05
0.0171139 0.001091 1e-05
0.0172462 0.00109034 1e-05
0.0173785 0.00108967 1e-05
0.0175108 0.00108899 1e-05
0.0176431 0.0010883 1e-05
0.0177754 0.0010876 1e-05
0.0179087 0.0010869 1e-05
0.018042 0.00108618 1e-05
0.0181753 0.00108544 1e-05
0.0183087 0.0010847 1e-05
0.018442 0.00108395 1e-05
0.0185763 0.0010832 1e-05
0.0187107 0.00108243 1e-05
0.018845 0.00108164 1e-05
0.0189794 0.00108085 1e-05
0.0191137 0.00108005 1e-05
0.0192491 0.00107925 1e-05
0.0193845 0.00107843 1e-05
0.0195199 0.00107759 1e-05
0.0196553 0.00107674 1e-05
0.0197907 0.0010759 1e-05
0.0199272 0.00107505 1e-05
0.0200636 0.00107418 1e-05
0.0202001 0.00107329 1e-05
0.0203365 0.00107239 1e-05
0.020473 0.00107149 1e-05
0.0206105 0.00107059 1e-05
0.020748 0.00106967 1e-05
0.0208855 0.00106873 1e-05
0.021023 0.00106778 1e-05
0.0211606 0.00106683 1e-05
0.0212991 0.00106589 1e-05
0.0214377 0.00106492 1e-05
0.0215763 0.00106392 1e-05
0.0217149 0.00106292 1e-05
0.0218535 0.00106192 1e-05
0.0219931 0.00106093 1e-05
0.0221328 0.00105991 1e-05
0.0222724 0.00105886 1e-05
0.0224121 0.00105781 1e-05
0.0225517 0.00105676 1e-05
0.0226925 0.00105572 1e-05
0.0228332 0.00105464 1e-05
0.022974 0.00105355 1e-05
0.0231147 0.00105244 1e-05
0.0232555 0.00105134 1e-05
0.0233973 0.00105025 1e-05
0.0235391 0.00104913 1e-05
0.023681 0.00104798 1e-05
0.0238228 0.00104682 1e-05
0.0239647 0.00104567 1e-05
0.0241076 0.00104452 1e-05
0.0242505 0.00104335 1e-05
0.0243935 0.00104215 1e-05
0.0245364 0.00104094 1e-05
0.0246794 0.00103974 1e-05
0.0248234 0.00103854 1e-05
0.0249675 0.00103732 1e-05
0.0251115 0.00103606 1e-05
0.0252556 0.0010348 1e-05
[...]
POINT_DATA 12040
 FIELD attributes 1
U 3 12040 float
10.0004 	0.00734816 	0 10.0004 	0.00587853 	0 10.0003 	0.0044089 	0 10.0002 	0.00293926 	0 10.0001 	0.00146963 	0 10 	0 	0
10.0001 	0.00087806 	0 10 	0.000702448 	0 10 	0.000526836 	0 10 	0.000351224 	0 10 	0.000175612 	0 10 	0 	0
10.0001 	0.000465909 	0 10.0001 	0.000372537 	0 10.0001 	0.000279164 	0 10 	0.000185791 	0 10 	9.24182e-05 	0 10 	0 	0
10 	0.000265907 	0 10 	0.000212726 	0 10 	0.000159544 	0 10 	0.000106363 	0 10 	5.31815e-05 	0 10 	0 	0
10 	8.02828e-05 	0 10 	6.42262e-05 	0 10 	4.81697e-05 	0 10 	3.21131e-05 	0 10 	1.60566e-05 	0 10 	0 	0
10 	-2.63299e-05 	0 10 	-2.10639e-05 	0 10 	-1.5798e-05 	0 10 	-1.0532e-05 	0 10 	-5.26598e-06 	0 10 	0 	0
10 	-0.000216186 	0 10 	-0.000172949 	0 10 	-0.000129711 	0 10 	-8.64743e-05 	0 10 	-4.32372e-05 	0 10 	0 	0
10 	-0.000377713 	0 10 	-0.000302171 	0 10 	-0.000226628 	0 10 	-0.000151085 	0 10 	-7.55427e-05 	0 10 	0 	0
9.99999 	-0.000426529 	0 9.99999 	-0.000341223 	0 9.99999 	-0.000255917 	0 10 	-0.000170612 	0 10 	-8.53058e-05 	0 10 	0 	0
9.17387 	0.0871272 	0 9.1308 	0.0697018 	0 9.08741 	0.0522761 	0 9.04368 	0.0348501 	0 8.99963 	0.017424 	0 8.95524 	0 	0
10.0004 	0.00734816 	0 10.0024 	0.0152062 	0 10.0045 	0.0222279 	0 10.0065 	0.0292051 	0 10.0086 	0.0361382 	0 10.0136 	0.0463301 	0 10.0164 	0.0402107 	0 10.0208 	0.0401611 	0 10.0253 	0.0401117 	0 10.0297 	0.0400625 	0 10.0356 	0.0445209 	0 10.0385 	0.0378824 	0 10.0425 	0.0378388 	0 10.0464 	0.0377952 	0 10.0504 	0.0377515 	0 10.0545 	0.0408532 	0 10.0567 	0.0387748 	0 10.0592 	0.0400839 	0 10.0616 	0.0413946 	0 10.064 	0.0427069 	0 10.0662 	0.0451653 	0 10.0677 	0.0452762 	0 10.0691 	0.0464786 	0 10.0704 	0.0476823 	0 10.0717 	0.048887 	0 10.0729 	0.0499054 	0 10.0729 	0.0499675 	0 10.073 	0.0500295 	0 10.0731 	0.0500916 	0 10.0731 	0.0501536 	0 10.0732 	0.0502064 	0 10.0738 	0.0508325 	0 10.0743 	0.0514527 	0 10.0748 	0.0520735 	0 10.0753 	0.0526947 	0 10.0758 	0.053152 	0 10.0757 	0.0534469 	0 10.0754 	0.0536365 	0 10.075 	0.0538261 	0 10.0747 	0.0540159 	0 10.0741 	0.0539674 	0 10.0737 	0.0541112 	0 10.0726 	0.0540868 	0 10.0715 	0.0540624 	0 10.0705 	0.054038 	0 10.0689 	0.0537444 	0 10.0685 	0.0538233 	0 10.0669 	0.0536885 	0 10.0653 	0.0535537 	0 10.0637 	0.0534188 	0 10.0611 	0.0529976 	0 10.0611 	0.0530498 	0 10.0591 	0.0528535 	0 10.0571 	0.0526571 	0 10.0551 	0.0524606 	0 10.0515 	0.0519651 	0 10.0522 	0.0520154 	0 10.0499 	0.051792 	0 10.0476 	0.0515685 	0 10.0453 	0.0513449 	0 10.0407 	0.0508142 	0 10.0421 	0.0508833 	0 10.0396 	0.050654 	0 10.0371 	0.0504245 	0 10.0346 	0.0501951 	0 10.0289 	0.0496449 	0 10.0313 	0.0497386 	0 10.0287 	0.049519 	0 10.0261 	0.0492994 	0 10.0234 	0.0490796 	0 10.0165 	0.0485317 	0 10.0202 	0.0486589 	0 10.0174 	0.04845 	0 10.0147 	0.0482412 	0 10.012 	0.0480322 	0 10.0039 	0.047477 	0 10.0088 	0.0476351 	0 10.0061 	0.0474712 	0 10.0034 	0.0473072 	0 10.0006 	0.0471432 	0 9.99141 	0.0466416 	0 9.99759 	0.0468596 	0 9.99491 	0.0467027 	0 9.99223 	0.0465457 	0 9.98955 	0.0463887 	0 9.97913 	0.0458425 	0 9.98668 	0.0460658 	0 9.98408 	0.0460309 	0 9.98148 	0.045996 	0 9.97889 	0.045961 	0 9.9673 	0.0455872 	0 9.97631 	0.0458723 	9.00924e-22 9.97432 	0.0457173 	5.83934e-21 9.97231 	0.0455623 	1.07779e-20 9.97031 	0.0454072 	1.57166e-20 9.95825 	0.0447946 	1.33466e-20 9.96848 	0.0448971 	9.17768e-20 9.96668 	0.0445836 	8.51796e-20 9.96488 	0.04427 	7.85789e-20 9.96307 	0.0439564 	7.19746e-20 9.9508 	0.0432749 	-1.4606e-20 9.96088 	0.0432311 	-3.95795e-20 9.95913 	0.0429347 	-4.40318e-20 9.95737 	0.0426383 	-4.84825e-20 9.9556 	0.0423418 	-5.29317e-20 9.94353 	0.0417706 	-2.08647e-20 9.95315 	0.0415654 	-1.83563e-20 9.95124 	0.0410014 	-1.27789e-20 9.94933 	0.0404374 	-7.20193e-21 9.94742 	0.0398733 	-1.62538e-21 9.93555 	0.0390865 	6.85039e-21 9.94477 	0.0387697 	-5.58288e-21 9.94266 	0.0379603 	-2.37144e-20 9.94055 	0.0371508 	-4.18478e-20 9.93843 	0.036341 	-5.99833e-20 9.92666 	0.0352674 	-8.554e-20 9.93531 	0.0350186 	-1.20679e-19 9.93285 	0.0341997 	-1.08628e-19 9.93038 	0.0333807 	-9.65701e-20 9.92791 	0.0325614 	-8.45043e-20 9.91615 	0.0313566 	-2.91523e-20 9.92406 	0.0312314 	3.32854e-20 9.92121 	0.030491 	4.64189e-20 9.91835 	0.0297505 	5.95434e-20 9.91549 	0.0290097 	7.26587e-20 9.90379 	0.027781 	3.58588e-20 9.91087 	0.0276982 	-4.48786e-20 9.90764 	0.0269948 	-5.07865e-20 9.90439 	0.0262911 	-5.66804e-20 9.90115 	0.0255873 	-6.25604e-20 9.88961 	0.0243691 	-3.27851e-22 9.89575 	0.0242486 	5.83213e-20 9.89211 	0.0235523 	4.91575e-20 9.88846 	0.0228557 	3.99797e-20 9.8848 	0.0221589 	3.0788e-20 9.87351 	0.0209884 	-2.79752e-20 9.87852 	0.0208031 	-8.10138e-20 9.87442 	0.0201137 	-1.02615e-19 9.87031 	0.0194241 	-1.2421e-19 9.8662 	0.0187343 	-1.45801e-19 9.85525 	0.0176438 	-1.33253e-19 9.85889 	0.017389 	-1.51667e-19 9.85431 	0.0167109 	-1.3956e-19 9.84973 	0.0160326 	-1.27448e-19 9.84514 	0.015354 	-1.15332e-19 9.83469 	0.0143597 	-8.15073e-20 9.83672 	0.0140425 	-6.84183e-20 9.83166 	0.0133812 	-5.04202e-20 9.8266 	0.0127197 	-3.24238e-20 9.82154 	0.0120578 	-1.4429e-20 9.81182 	0.0111634 	1.95826e-21 9.81193 	0.0107785 	0 9.80641 	0.0101295 	0 9.80088 	0.00948027 	0 9.79535 	0.00883073 	0 9.78666 	0.00803147 	0 9.78449 	0.00756479 	-1.62372e-20 9.77852 	0.00692225 	-3.46885e-20 9.77253 	0.00627941 	-5.31414e-20 9.76654 	0.00563626 	-7.1596e-20 9.75923 	0.00493253 	-9.06025e-20 9.75688 	0.00461597 	-9.39352e-20 9.75295 	0.00422688 	-9.43779e-20 9.74901 	0.00383765 	-9.48187e-20 9.74508 	0.00344831 	-9.52577e-20 9.74127 	0.00307174 	-9.56803e-20 9.73871 	0.00282047 	-9.63916e-20 9.73615 	0.00256915 	-9.71031e-20 9.73359 	0.00231777 	-9.78148e-20 9.73103 	0.00206633 	-9.85267e-20 9.72598 	0.00170291 	-9.85179e-20 9.72134 	0.00117317 	-7.35075e-20 9.71439 	0.000540674 	-4.51851e-20 9.70743 	-9.22092e-05 	-1.68718e-20 9.70047 	-0.000725478 	1.14322e-20 9.68463 	-0.00174822 	4.8559e-20 9.68542 	-0.00202223 	4.94164e-20 9.67804 	-0.00264883 	5.05296e-20 9.67065 	-0.00327585 	5.16407e-20 9.66325 	-0.00390329 	5.27496e-20 9.64075 	-0.00517013 	5.59432e-20 9.64683 	-0.00521864 	4.40754e-20 9.63904 	-0.00583928 	3.2205e-20 9.63125 	-0.00646037 	2.03334e-20 9.62344 	-0.00708191 	8.46079e-21 9.5946 	-0.00854881 	-1.0579e-21 9.60569 	-0.00841453 	-7.96581e-21 9.59751 	-0.00902951 	-1.92986e-20 9.58932 	-0.00964498 	-3.06302e-20 9.58112 	-0.0102609 	-4.19608e-20 9.54644 	-0.0118762 	-5.33065e-20 9.56211 	-0.0116095 	-5.31193e-20 9.55357 	-0.012221 	-6.03047e-20 9.54502 	-0.012833 	-6.74872e-20 9.53646 	-0.0134456 	-7.46666e-20 9.49653 	-0.0151549 	-9.31233e-20 9.5163 	-0.0148064 	-1.47375e-19 9.50743 	-0.0154147 	-1.38129e-19 9.49854 	-0.0160236 	-1.28895e-19 9.48964 	-0.0166331 	-1.19674e-19 9.44515 	-0.0183768 	-4.06015e-20 9.46844 	-0.0179978 	-2.59204e-20 9.45925 	-0.0186025 	-1.81664e-20 9.45005 	-0.0192079 	-1.04117e-20 9.44084 	-0.0198139 	-2.65624e-21 9.3925 	-0.0215344 	0 9.41873 	-0.0211733 	0 9.40926 	-0.0217755 	0 9.39977 	-0.0223784 	0 9.39027 	-0.0229818 	0 9.33885 	-0.0246289 	0 9.3674 	-0.0243324 	1.55108e-21 9.35767 	-0.0249341 	8.76914e-21 9.34793 	-0.0255364 	1.59865e-20 9.33817 	-0.0261395 	2.3203e-20 9.2844 	-0.0276655 	4.07859e-20 9.3147 	-0.027483 	1.57246e-19 9.30474 	-0.0280846 	1.60102e-19 9.29476 	-0.0286869 	1.62972e-19 9.28477 	-0.0292898 	1.65856e-19 9.22936 	-0.0306427 	4.09722e-20 9.26087 	-0.0306171 	2.18747e-20 9.2507 	-0.0312172 	1.54222e-20 9.24051 	-0.0318181 	8.96882e-21 9.22762 	-0.0324505 	3.7456e-21 9.17393 	-0.033553 	1.72329e-20 9.20201 	-0.0337622 	1.02608e-19 9.19578 	-0.0343184 	1.12824e-19 9.18541 	-0.034917 	1.14016e-19 9.16835 	-0.0355561 	9.90243e-20 9.11828 	-0.0363929 	3.92604e-21 9.143 	-0.0368199 	-9.71426e-20 9.14022 	-0.0373783 	-1.27151e-19 9.12969 	-0.0379742 	-1.37164e-19 9.10917 	-0.0385694 	-1.26204e-19 9.06256 	-0.0391611 	-6.04049e-20 9.08412 	-0.0397858 	-1.74829e-19 9.08424 	-0.0403891 	-2.14571e-19 9.07357 	-0.0409822 	-2.1678e-19 9.05025 	-0.0414888 	-1.70134e-19 9.00693 	-0.0418581 	-4.61971e-20 9.02554 	-0.0426598 	-2.44307e-20 9.02804 	-0.0433454 	-1.06898e-20 9.01725 	-0.0439354 	-3.56317e-21 8.99175 	-0.0443154 	0 8.95153 	-0.0444851 	0 8.96741 	-0.045443 	0 8.97182 	-0.0462421 	0 8.96094 	-0.0468292 	0 8.9338 	-0.0470511 	1.9954e-21 8.89647 	-0.0470443 	5.24119e-21 8.90985 	-0.0481385 	2.14646e-21 8.91575 	-0.0490769 	0 8.9048 	-0.0496609 	0 8.87651 	-0.0496997 	2.37727e-21 8.84187 	-0.0495384 	5.62713e-21 8.85295 	-0.0507496 	2.5319e-21 8.85999 	-0.051847 	1.17688e-21 8.84898 	-0.0524279 	7.64812e-21 8.81999 	-0.052265 	2.40118e-20 8.78782 	-0.0519709 	4.21189e-20 8.79683 	-0.0532811 	1.65119e-19 8.8047 	-0.0545522 	2.81532e-19 8.79365 	-0.0551303 	2.84919e-19 8.76431 	-0.0547524 	1.65618e-19 8.73442 	-0.0543455 	4.26202e-20 8.74155 	-0.0557374 	2.47735e-20 8.74863 	-0.0571308 	6.92794e-21 8.73735 	-0.0576666 	2.91489e-22 8.70953 	-0.0571665 	3.41925e-21 8.68173 	-0.0566662 	6.54687e-21 8.68718 	-0.0581244 	3.57766e-21 8.69257 	-0.0595842 	6.09243e-22 8.68165 	-0.0600896 	2.05211e-21 8.65574 	-0.0595139 	-1.79801e-21 8.62984 	-0.0589378 	-5.64718e-21 8.63377 	-0.060448 	-4.82183e-20 8.63765 	-0.0619598 	-9.07931e-20 8.62714 	-0.0624351 	-9.21203e-20 8.60297 	-0.061799 	-5.31694e-20 8.57881 	-0.0611624 	-1.42165e-20 8.58139 	-0.0627131 	8.31101e-20 8.58391 	-0.0642654 	1.80432e-19 8.57385 	-0.0647121 	1.88813e-19 8.55126 	-0.0640309 	1.07752e-19 8.52868 	-0.063349 	2.66914e-20 8.53006 	-0.0649367 	1.55254e-20 8.5314 	-0.0665259 	4.35596e-21 8.52181 	-0.0669458 	4.85038e-22 8.50064 	-0.0662259 	5.015e-21 8.4795 	-0.0655055 	9.54671e-21 8.47984 	-0.0671171 	4.11826e-21 8.48012 	-0.0687303 	-1.31516e-21 8.47103 	-0.0691235 	-2.04694e-20 8.45115 	-0.0683778 	-6.96083e-20 8.4313 	-0.0676315 	-1.18749e-19 8.43072 	-0.0692511 	-2.47372e-19 8.43008 	-0.0708723 	-3.7599e-19 8.42149 	-0.0712405 	-3.61127e-19 8.40278 	-0.0704878 	-2.13695e-19 8.38409 	-0.0697344 	-6.62657e-20 8.3827 	-0.0713529 	5.54837e-20 8.38124 	-0.0729695 	1.76931e-19 8.37288 	-0.0732841 	1.74577e-19 8.35554 	-0.0725732 	8.88882e-20 8.3379 	-0.0718267 	3.44658e-22 8.3358 	-0.0734387 	-8.75387e-20 8.3328 	-0.0748716 	-1.64436e-19 8.32459 	-0.0751924 	-1.73555e-19 8.30941 	-0.0746485 	-1.12442e-19 8.29273 	-0.0739174 	-3.61481e-20 8.28999 	-0.0755188 	-2.51089e-20 8.28575 	-0.0767671 	-1.41664e-20 8.27769 	-0.0770957 	-3.46883e-21 8.26438 	-0.0767232 	1.36671e-20 8.24857 	-0.076014 	3.38947e-20 8.24528 	-0.0776031 	1.24695e-20 8.24003 	-0.0786695 	-2.3828e-21 8.2321 	-0.0790076 	-8.08212e-21 8.22043 	-0.0788078 	-3.04633e-21 8.20542 	-0.0781255 	1.16176e-20 8.20163 	-0.0797014 	-4.62312e-21 8.19559 	-0.0805908 	-1.52927e-20 8.18779 	-0.08094 	-2.15789e-20 8.17754 	-0.0809122 	-3.3513e-20 8.16325 	-0.0802605 	-5.47895e-20 8.15902 	-0.081823 	5.18587e-20 8.15237 	-0.0825414 	8.52169e-20 8.14469 	-0.0829032 	8.76154e-20 8.13567 	-0.0830455 	6.89954e-20 8.12204 	-0.0824272 	-2.23162e-20 8.11742 	-0.0839767 	6.77386e-20 8.11032 	-0.0845308 	8.41342e-20 8.10276 	-0.0849067 	8.73185e-20 8.0948 	-0.0852161 	8.50541e-20 8.08177 	-0.0846337 	1.01161e-20 8.07681 	-0.0861708 	-6.34732e-22 8.06938 	-0.086568 	-4.6931e-22 8.06193 	-0.0869593 	-2.44432e-22 8.05446 	-0.0873509 	-1.95748e-23 8.04242 	-0.0868879 	1.78653e-20 8.03686 	-0.0882538 	0 8.02952 	-0.0886616 	0 8.02216 	-0.0890697 	0 8.01479 	-0.0894781 	0 8.00395 	-0.0891976 	1.48753e-20 7.99792 	-0.0903941 	0 7.99067 	-0.09082 	0 7.98341 	-0.0912461 	0 7.97613 	-0.0916726 	0 7.96633 	-0.0915707 	0 7.95995 	-0.0926058 	0 7.95279 	-0.093051 	0 7.94561 	-0.0934965 	0 7.93841 	-0.0939423 	0 7.92954 	-0.0940149 	-8.22789e-21 7.9229 	-0.0948965 	0 7.91582 	-0.0953623 	0 7.90872 	-0.0958284 	0 7.90159 	-0.0962947 	0 7.89351 	-0.0965379 	-1.01059e-20 7.88672 	-0.0972736 	0 7.8797 	-0.097761 	0 7.87267 	-0.0982486 	0 7.86561 	-0.0987366 	0 7.85823 	-0.099146 	-3.62479e-21 7.85439 	-0.099519 	-4.7923e-21 7.8505 	-0.0998046 	-1.04892e-20 7.8466 	-0.10009 	-1.61865e-20 7.8427 	-0.100376 	-2.18841e-20 7.83888 	-0.100655 	-2.74517e-20 7.8357 	-0.100882 	-3.16574e-20 7.83251 	-0.101109 	-3.58629e-20 7.82932 	-0.101336 	-4.00681e-20 7.82613 	-0.101563 	-4.42731e-20 7.82329 	-0.10172 	-4.8481e-20 7.81607 	-0.102318 	-4.71122e-20 7.80897 	-0.102854 	-4.64935e-20 7.80184 	-0.10339 	-4.5872e-20 7.79469 	-0.103926 	-4.52479e-20 7.78867 	-0.104241 	-4.71085e-20 7.7812 	-0.105001 	-3.68474e-20 7.77414 	-0.105562 	-2.65738e-20 7.76705 	-0.106123 	-1.62987e-20 7.75995 	-0.106684 	-6.0223e-21 7.75475 	-0.106877 	0 7.747 	-0.107797 	-2.63068e-21 7.73998 	-0.108384 	-7.35477e-21 7.73293 	-0.108971 	-1.20781e-20 7.72585 	-0.109558 	-1.68007e-20 7.72144 	-0.109636 	-2.14894e-20 7.71343 	-0.110712 	-5.01571e-20 7.70643 	-0.111326 	-6.95652e-20 7.6994 	-0.11194 	-8.89748e-20 7.69235 	-0.112555 	-1.08386e-19 7.68872 	-0.112524 	-1.0068e-19 7.68042 	-0.113752 	-7.84872e-20 7.67344 	-0.114395 	-6.75547e-20 7.66644 	-0.115038 	-5.66159e-20 7.65941 	-0.115681 	-4.56708e-20 7.65651 	-0.115548 	-6.74993e-20 7.64796 	-0.116917 	-8.12986e-20 7.64097 	-0.117599 	-6.35774e-20 7.63397 	-0.118272 	-4.5453e-20 7.62748 	-0.118847 	-2.55477e-20 7.62479 	-0.118717 	7.14883e-21 7.61626 	-0.120099 	1.1441e-20 7.60896 	-0.120945 	8.41401e-21 7.60197 	-0.12165 	3.4468e-21 7.59626 	-0.122116 	0 7.59349 	-0.122038 	0 7.58499 	-0.123433 	0 7.57737 	-0.124441 	0 7.57037 	-0.125178 	0 7.56542 	-0.125539 	0 7.56258 	-0.125514 	0 7.55408 	-0.126925 	0 7.54615 	-0.128089 	-6.70125e-21 7.53914 	-0.12886 	-2.40814e-20 7.53491 	-0.129123 	-4.15135e-20 7.53199 	-0.129151 	-5.89706e-20 7.5235 	-0.13058 	-4.01373e-20 7.51524 	-0.131898 	-2.05689e-20 7.5082 	-0.132703 	2.39727e-21 7.50469 	-0.132874 	8.80092e-21 7.50167 	-0.132955 	1.28407e-20 7.49318 	-0.134403 	4.47923e-20 7.48464 	-0.135851 	7.67422e-20 7.4778 	-0.136663 	9.36844e-20 7.47469 	-0.136797 	7.90357e-20 7.47158 	-0.136931 	6.43856e-20 7.46308 	-0.1384 	4.08193e-20 7.45453 	-0.139869 	1.72446e-20 7.4481 	-0.140709 	2.49226e-21 7.44489 	-0.140896 	1.16735e-20 7.44166 	-0.141084 	2.08556e-20 7.43314 	-0.142575 	8.30524e-20 7.42457 	-0.144066 	1.45252e-19 7.41854 	-0.144937 	1.45898e-19 7.41521 	-0.145177 	8.43182e-20 7.41186 	-0.145418 	2.27367e-20 7.40332 	-0.146933 	1.4336e-20 7.39473 	-0.148448 	5.9388e-21 7.38907 	-0.14935 	6.10349e-21 7.38561 	-0.149644 	1.50642e-20 7.38214 	-0.149938 	2.4026e-20 7.37356 	-0.151478 	8.47673e-20 7.36493 	-0.153018 	1.45512e-19 7.35963 	-0.153953 	1.46192e-19 7.35603 	-0.1543 	8.60958e-20 7.35242 	-0.154647 	2.59985e-20 7.3438 	-0.156213 	1.78437e-20 7.33553 	-0.15771 	9.68004e-21 7.33042 	-0.158655 	1.42223e-21 7.32643 	-0.159149 	0 7.32267 	-0.15955 	0 7.314 	-0.161142 	0 7.30646 	-0.162533 	0 7.30122 	-0.163519 	0 7.29676 	-0.164194 	0 7.29284 	-0.164647 	0 7.28411 	-0.166268 	0 7.27726 	-0.167557 	0 7.2719 	-0.168584 	0 7.26695 	-0.169437 	5.21181e-21 7.26287 	-0.169943 	2.07913e-20 7.25407 	-0.171593 	3.60642e-21 7.2479 	-0.172783 	6.66549e-21 7.2424 	-0.173851 	1.51029e-20 7.23697 	-0.17488 	2.3868e-20 7.2327 	-0.175438 	3.64881e-20 7.22391 	-0.177103 	1.19064e-19 7.2183 	-0.178213 	1.23511e-19 7.21266 	-0.179322 	1.27937e-19 7.20698 	-0.180432 	1.32341e-19 7.2023 	-0.181135 	4.91225e-20 7.1942 	-0.182696 	1.23684e-19 7.18844 	-0.183847 	1.12021e-19 7.18264 	-0.184998 	1.00337e-19 7.17681 	-0.186149 	8.863e-20 7.1716 	-0.187034 	3.77446e-20 7.16417 	-0.188493 	3.24853e-20 7.15825 	-0.189685 	3.29555e-20 7.15229 	-0.190877 	3.34308e-20 7.14629 	-0.19207 	3.39112e-20 7.14056 	-0.193135 	4.41961e-20 7.1342 	-0.194408 	4.75157e-20 7.12854 	-0.195554 	4.51997e-20 7.12285 	-0.1967 	4.28701e-20 7.11712 	-0.197846 	4.0527e-20 7.1117 	-0.198923 	3.83117e-20 7.11117 	-0.199024 	3.82404e-20 7.11065 	-0.199125 	3.8169e-20 7.11012 	-0.199226 	3.80975e-20 7.10959 	-0.199327 	3.80261e-20 7.10916 	-0.199418 	3.83094e-20 7.10269 	-0.2007 	3.237e-20 7.09624 	-0.201972 	2.59203e-20 7.08974 	-0.203244 	1.94788e-20 7.08319 	-0.204516 	1.30455e-20 7.07787 	-0.205655 	8.44432e-22 7.07053 	-0.207102 	-2.45258e-22 7.06388 	-0.208414 	-1.73743e-22 7.05719 	-0.209726 	-1.02202e-22 7.05045 	-0.211038 	-3.06365e-23 7.04611 	-0.212096 	0 7.03787 	-0.213706 	-4.80289e-21 7.03102 	-0.215057 	-1.82434e-20 7.02412 	-0.216409 	-3.16781e-20 7.01717 	-0.217761 	-4.5107e-20 7.01383 	-0.218737 	-5.53633e-20 7.00466 	-0.22051 	-4.34505e-20 6.99759 	-0.2219 	-2.85702e-20 6.99047 	-0.22329 	-1.3684e-20 6.98393 	-0.224617 	6.91876e-23 6.98098 	-0.225576 	7.2246e-21 6.97151 	-0.227394 	9.91994e-22 6.96355 	-0.228939 	8.66237e-21 6.95621 	-0.230367 	2.22734e-20 6.95071 	-0.231606 	3.90082e-20 6.94751 	-0.232608 	5.96514e-20 6.93782 	-0.234457 	3.81438e-20 6.92887 	-0.236169 	1.8965e-20 6.92129 	-0.237634 	3.99356e-21 6.91682 	-0.238785 	-2.19959e-21 6.91338 	-0.23983 	-5.448e-21 6.90346 	-0.241709 	-5.57985e-20 6.89347 	-0.243588 	-1.06094e-19 6.8859 	-0.245064 	-1.07084e-19 6.88224 	-0.24615 	-6.74964e-20 6.87854 	-0.247235 	-2.79091e-20 6.86837 	-0.249145 	-6.80741e-20 6.85815 	-0.251054 	-1.08247e-19 6.85085 	-0.25257 	-1.07956e-19 6.84692 	-0.253695 	-6.58107e-20 6.84295 	-0.25482 	-2.36638e-20 6.83254 	-0.256758 	-6.59477e-20 6.82206 	-0.258695 	-1.08237e-19 6.81502 	-0.260253 	-1.04272e-19 6.81082 	-0.261415 	-5.65035e-20 6.80657 	-0.262578 	-8.7308e-21 6.7959 	-0.264542 	-6.02221e-21 6.78533 	-0.26649 	-3.3063e-21 6.77867 	-0.268057 	-3.79052e-22 6.77389 	-0.269303 	0 6.76936 	-0.270501 	0 6.75842 	-0.272492 	0 6.74901 	-0.274331 	0 6.74206 	-0.275927 	0 6.73611 	-0.277353 	0 6.73129 	-0.278585 	0 6.72008 	-0.2806 	0 6.71183 	-0.282327 	-2.25553e-21 6.7046 	-0.283952 	-5.31074e-21 6.69744 	-0.285556 	-7.74918e-21 6.69232 	-0.28682 	2.37356e-22 6.68122 	-0.288821 	-5.03324e-20 6.67376 	-0.290472 	-4.72074e-20 6.66623 	-0.292123 	-4.40609e-20 6.65866 	-0.293773 	-4.08929e-20 6.65241 	-0.2952 	-5.64892e-21 6.64253 	-0.297081 	-7.27762e-21 6.63477 	-0.298757 	1.21236e-21 6.62694 	-0.300432 	9.70363e-21 6.61907 	-0.302107 	1.81962e-20 6.61154 	-0.303717 	2.42751e-20 6.60762 	-0.304471 	3.23088e-20 6.60433 	-0.305166 	3.2385e-20 6.60104 	-0.305861 	3.24583e-20 6.59773 	-0.306555 	3.25288e-20 6.59451 	-0.30723 	3.25945e-20 6.58939 	-0.308235 	3.34709e-20 6.58425 	-0.30924 	3.43445e-20 6.57909 	-0.310246 	3.52151e-20 6.5739 	-0.311251 	3.60827e-20 6.56934 	-0.312178 	3.98431e-20 6.56018 	-0.31398 	4.05052e-20 6.55127 	-0.315695 	3.83643e-20 6.5423 	-0.31741 	3.62283e-20 6.53327 	-0.319125 	3.40973e-20 6.52594 	-0.320629 	1.90378e-20 6.51584 	-0.322598 	3.31402e-20 6.50658 	-0.324332 	2.72108e-20 6.49726 	-0.326065 	2.12929e-20 6.48813 	-0.327767 	1.32431e-20 6.48136 	-0.329186 	-1.48115e-20 6.47066 	-0.331226 	-7.84767e-21 6.46067 	-0.333071 	-6.81911e-21 6.45098 	-0.33482 	-8.70634e-21 6.44268 	-0.336401 	-9.26939e-21 6.43557 	-0.337838 	-8.6988e-21 6.4245 	-0.339888 	-7.37758e-21 6.41349 	-0.341903 	-5.5463e-21 6.40343 	-0.343666 	-4.2898e-23 6.396 	-0.34512 	5.08384e-21 6.38854 	-0.346573 	1.02112e-20 6.37708 	-0.348631 	6.04244e-21 6.36555 	-0.350689 	1.8776e-21 6.35583 	-0.35245 	0 6.34807 	-0.353915 	0 6.34025 	-0.35538 	0 6.3284 	-0.357445 	0 6.31647 	-0.359509 	0 6.30702 	-0.361287 	0 6.29885 	-0.362773 	0 6.29067 	-0.364248 	0 6.27842 	-0.366316 	0 6.26726 	-0.368255 	1.88377e-21 6.25762 	-0.370017 	6.31924e-21 6.24833 	-0.371682 	1.0762e-20 6.23978 	-0.373165 	1.5217e-20 6.22712 	-0.375234 	1.16785e-20 6.21696 	-0.377021 	1.21622e-20 6.20694 	-0.378786 	1.29701e-20 6.19684 	-0.380549 	1.3784e-20 6.18754 	-0.382117 	1.58562e-20 6.17571 	-0.384051 	3.60156e-21 6.16536 	-0.385815 	-2.22378e-21 6.15495 	-0.387579 	-8.03657e-21 6.14446 	-0.389342 	-1.38368e-20 6.13395 	-0.391092 	-1.89156e-20 6.13315 	-0.391219 	-1.86227e-20 6.13245 	-0.391334 	-1.84163e-20 6.13175 	-0.39145 	-1.821e-20 6.13105 	-0.391566 	-1.80036e-20 6.13035 	-0.391681 	-1.77982e-20 6.12075 	-0.39333 	-1.71793e-20 6.11109 	-0.394979 	-1.65771e-20 6.10137 	-0.396627 	-1.59917e-20 6.09158 	-0.398275 	-1.54233e-20 6.08189 	-0.399772 	-4.5379e-21 6.07167 	-0.401706 	1.70638e-20 