/*--------------------------------*- C++ -*----------------------------------*\
  =========                 |
  \\      /  F ield         | OpenFOAM: The Open Source CFD Toolbox
   \\    /   O peration     | Website:  https://openfoam.org
    \\  /    A nd           | Version:  8
     \\/     M anipulation  |
\*---------------------------------------------------------------------------*/
FoamFile
{
    version     2.0;
    format      ascii;
    class       volScalarField;
    location    "32";
    object      p;
}
// * * * * * * * * * * * * * * * * * * * * * * * * * * * * * * * * * * * * * //

dimensions      [0 2 -2 0 0 0 0];

internalField   nonuniform List<scalar> 
1600
(
-3.74502e-11
-1.42536e-08
-4.2254e-08
-7.82445e-08
-1.15921e-07
-1.50848e-07
-1.80217e-07
-2.02358e-07
-2.15883e-07
-2.20433e-07
-2.15603e-07
-2.01331e-07
-1.774e-07
-1.43999e-07
-1.01183e-07
-4.93455e-08
1.08282e-08
7.89499e-08
1.5361e-07
2.33261e-07
3.16274e-07
4.00332e-07
4.82938e-07
5.61375e-07
6.33106e-07
6.95267e-07
7.45664e-07
7.8218e-07
8.03683e-07
8.09651e-07
8.00069e-07
7.76472e-07
7.40703e-07
6.95898e-07
6.45779e-07
5.94876e-07
5.47982e-07
5.10585e-07
4.88134e-07
4.81238e-07
1.41638e-08
1.24148e-11
-2.44751e-08
-5.47561e-08
-8.67032e-08
-1.15343e-07
-1.39491e-07
-1.58654e-07
-1.69307e-07
-1.72238e-07
-1.67434e-07
-1.54364e-07
-1.32636e-07
-1.02366e-07
-6.37204e-08
-1.68018e-08
3.75211e-08
9.86458e-08
1.65619e-07
2.37706e-07
3.11738e-07
3.87254e-07
4.61543e-07
5.31509e-07
5.96009e-07
6.51281e-07
6.97269e-07
7.29489e-07
7.49927e-07
7.56033e-07
7.47631e-07
7.27512e-07
6.97325e-07
6.59017e-07
6.15606e-07
5.72831e-07
5.32933e-07
5.01249e-07
4.80973e-07
4.74449e-07
4.2551e-08
2.3841e-08
-1.59059e-09
-2.87675e-08
-5.6756e-08
-8.0747e-08
-1.01418e-07
-1.16552e-07
-1.25382e-07
-1.28409e-07
-1.23467e-07
-1.10397e-07
-9.1749e-08
-6.4799e-08
-3.05318e-08
1.12831e-08
5.99023e-08
1.14212e-07
1.74366e-07
2.38371e-07
3.04895e-07
3.7268e-07
4.39219e-07
5.02926e-07
5.60851e-07
6.11381e-07
6.53062e-07
6.82439e-07
7.01284e-07
7.06122e-07
7.00175e-07
6.82542e-07
6.55534e-07
6.21777e-07
5.84097e-07
5.46323e-07
5.09467e-07
4.80949e-07
4.60858e-07
4.52251e-07
8.00151e-08
5.38443e-08
2.49127e-08
-2.74528e-09
-2.8874e-08
-5.2797e-08
-7.04104e-08
-8.42151e-08
-9.20756e-08
-9.41742e-08
-9.00799e-08
-7.90126e-08
-6.24506e-08
-3.79558e-08
-7.78869e-09
2.9828e-08
7.21134e-08
1.21604e-07
1.76034e-07
2.34355e-07
2.95898e-07
3.58346e-07
4.19788e-07
4.78718e-07
5.32289e-07
5.79502e-07
6.18385e-07
6.46399e-07
6.63239e-07
6.68061e-07
6.624e-07
6.46728e-07
6.20978e-07
5.89267e-07
5.52557e-07
5.16489e-07
4.81379e-07
4.5118e-07
4.28894e-07
4.15009e-07
1.19998e-07
8.53037e-08
5.08246e-08
1.88093e-08
-7.61442e-09
-3.00209e-08
-4.75722e-08
-6.06923e-08
-6.77372e-08
-6.98759e-08
-6.69546e-08
-5.8003e-08
-4.37093e-08
-2.25673e-08
3.4073e-09
3.7151e-08
7.57273e-08
1.20282e-07
1.70548e-07
2.23807e-07
2.80839e-07
3.39111e-07
3.96983e-07
4.53642e-07
5.05879e-07
5.51319e-07
5.88287e-07
6.15988e-07
6.33333e-07
6.39068e-07
6.32693e-07
6.15885e-07
5.9119e-07
5.59903e-07
5.22723e-07
4.84687e-07
4.48414e-07
4.13768e-07
3.86264e-07
3.66339e-07
1.57537e-07
1.13884e-07
7.21282e-08
3.78334e-08
7.75546e-09
-1.45059e-08
-3.2701e-08
-4.6275e-08
-5.38182e-08
-5.70669e-08
-5.61454e-08
-4.81773e-08
-3.63788e-08
-1.91872e-08
3.20397e-09
3.32275e-08
6.7806e-08
1.07865e-07
1.53851e-07
2.04975e-07
2.58171e-07
3.15523e-07
3.71507e-07
4.264e-07
4.78187e-07
5.23193e-07
5.60993e-07
5.90052e-07
6.06255e-07
6.12618e-07
6.07301e-07
5.90641e-07
5.6457e-07
5.30424e-07
4.92174e-07
4.5148e-07
4.10754e-07
3.71989e-07
3.36892e-07
3.09169e-07
1.88276e-07
1.35689e-07
8.59018e-08
4.77536e-08
1.5509e-08
-8.4563e-09
-2.79955e-08
-4.22916e-08
-5.07396e-08
-5.67509e-08
-5.56141e-08
-5.28618e-08
-4.35772e-08
-2.99396e-08
-9.89238e-09
1.53493e-08
4.59429e-08
8.33741e-08
1.26489e-07
1.73878e-07
2.26732e-07
2.80877e-07
3.37767e-07
3.92826e-07
4.45223e-07
4.93139e-07
5.32279e-07
5.63721e-07
5.81736e-07
5.88406e-07
5.84169e-07
5.66747e-07
5.3979e-07
5.04133e-07
4.6281e-07
4.1684e-07
3.69671e-07
3.24844e-07
2.81123e-07
2.45203e-07
2.0886e-07
1.47871e-07
9.17594e-08
4.75536e-08
1.22297e-08
-1.38028e-08
-3.53016e-08
-5.08995e-08
-6.14629e-08
-6.94271e-08
-7.19354e-08
-7.06296e-08
-6.50901e-08
-5.50884e-08
-3.95746e-08
-1.85639e-08
8.20532e-09
4.30519e-08
8.27441e-08
1.29077e-07
1.79693e-07
2.3537e-07
2.92983e-07
3.50024e-07
4.06028e-07
4.55698e-07
4.99283e-07
5.32614e-07
5.55767e-07
5.65153e-07
5.62065e-07
5.45242e-07
5.1699e-07
4.78646e-07
4.31539e-07
3.80416e-07
3.26385e-07
2.72879e-07
2.20953e-07
1.75654e-07
2.1585e-07
1.46506e-07
8.29366e-08
3.46564e-08
-3.89051e-09
-3.29981e-08
-5.59996e-08
-7.40687e-08
-8.7449e-08
-9.7539e-08
-1.03293e-07
-1.06729e-07
-1.05222e-07
-9.93055e-08
-8.81374e-08
-7.10527e-08
-4.73705e-08
-1.70224e-08
2.04329e-08
6.58438e-08
1.15792e-07
1.72418e-07
2.32091e-07
2.92795e-07
3.52476e-07
4.09135e-07
4.57334e-07
4.97435e-07
5.25188e-07
5.3923e-07
5.38069e-07
5.22642e-07
4.93666e-07
4.51663e-07
4.01164e-07
3.4362e-07
2.82142e-07
2.18091e-07
1.55874e-07
1.00582e-07
2.06549e-07
1.29455e-07
5.94222e-08
6.70391e-09
-3.43233e-08
-6.74165e-08
-9.26767e-08
-1.13894e-07
-1.30839e-07
-1.4395e-07
-1.54174e-07
-1.6147e-07
-1.64617e-07
-1.64532e-07
-1.5815e-07
-1.45198e-07
-1.26281e-07
-9.86e-08
-6.39583e-08
-2.02319e-08
3.07078e-08
8.83792e-08
1.51374e-07
2.17927e-07
2.83783e-07
3.46741e-07
4.03679e-07
4.51584e-07
4.86181e-07
5.06633e-07
5.10444e-07
4.99184e-07
4.69257e-07
4.25681e-07
3.70212e-07
3.05463e-07
2.33893e-07
1.60748e-07
8.59383e-08
1.99359e-08
1.78231e-07
9.38603e-08
1.83977e-08
-3.94648e-08
-8.45156e-08
-1.2e-07
-1.4791e-07
-1.7283e-07
-1.92682e-07
-2.10155e-07
-2.25939e-07
-2.38343e-07
-2.4728e-07
-2.51955e-07
-2.51875e-07
-2.45283e-07
-2.30908e-07
-2.07582e-07
-1.75458e-07
-1.339e-07
-8.15681e-08
-2.13781e-08
4.45406e-08
1.17438e-07
1.90849e-07
2.63733e-07
3.31498e-07
3.89483e-07
4.35996e-07
4.66351e-07
4.76878e-07
4.69511e-07
4.42517e-07
3.97739e-07
3.38005e-07
2.64933e-07
1.8496e-07
1.00001e-07
1.25112e-08
-6.62812e-08
1.28638e-07
3.84457e-08
-4.29594e-08
-1.04842e-07
-1.52805e-07
-1.91321e-07
-2.24753e-07
-2.51257e-07
-2.76585e-07
-3.00507e-07
-3.20656e-07
-3.39355e-07
-3.55631e-07
-3.67409e-07
-3.73128e-07
-3.74311e-07
-3.65013e-07
-3.46818e-07
-3.18915e-07
-2.78487e-07
-2.27157e-07
-1.64973e-07
-9.3497e-08
-1.36182e-08
7.01492e-08
1.55016e-07
2.35504e-07
3.07953e-07
3.67824e-07
4.10701e-07
4.33711e-07
4.34251e-07
4.1248e-07
3.67664e-07
3.03465e-07
2.24195e-07
1.33031e-07
3.5511e-08
-6.63557e-08
-1.58673e-07
5.53979e-08
-4.01063e-08
-1.26443e-07
-1.92221e-07
-2.44173e-07
-2.85277e-07
-3.22085e-07
-3.54344e-07
-3.85097e-07
-4.13435e-07
-4.40855e-07
-4.67467e-07
-4.91753e-07
-5.11263e-07
-5.27243e-07
-5.33703e-07
-5.33865e-07
-5.22461e-07
-4.98829e-07
-4.62215e-07
-4.10625e-07
-3.47266e-07
-2.70485e-07
-1.822e-07
-8.84876e-08
1.10692e-08
1.08584e-07
1.98431e-07
2.76935e-07
3.37659e-07
3.75494e-07
3.88787e-07
3.74097e-07
3.33592e-07
2.68329e-07
1.82253e-07
8.09827e-08
-3.12926e-08
-1.48671e-07
-2.57429e-07
-4.30415e-08
-1.43942e-07
-2.34032e-07
-3.03117e-07
-3.57214e-07
-4.03705e-07
-4.43768e-07
-4.81219e-07
-5.18003e-07
-5.53208e-07
-5.89005e-07
-6.24513e-07
-6.57474e-07
-6.87558e-07
-7.12679e-07
-7.30907e-07
-7.39288e-07
-7.36703e-07
-7.2025e-07
-6.87707e-07
-6.39017e-07
-5.74802e-07
-4.92701e-07
-3.96209e-07
-2.89036e-07
-1.74886e-07
-5.83105e-08
5.48597e-08
1.56125e-07
2.39088e-07
2.99245e-07
3.29231e-07
3.27983e-07
2.93492e-07
2.29593e-07
1.37829e-07
2.63292e-08
-9.97914e-08
-2.3587e-07
-3.62295e-07
-1.68413e-07
-2.72386e-07
-3.66529e-07
-4.38876e-07
-4.96676e-07
-5.46417e-07
-5.91967e-07
-6.34687e-07
-6.7749e-07
-7.213e-07
-7.66887e-07
-8.12071e-07
-8.55725e-07
-8.98497e-07
-9.36357e-07
-9.6623e-07
-9.86639e-07
-9.94067e-07
-9.86465e-07
-9.62332e-07
-9.18615e-07
-8.54003e-07
-7.68561e-07
-6.65264e-07
-5.43992e-07
-4.10931e-07
-2.72134e-07
-1.33193e-07
-3.28492e-09
1.09517e-07
1.96367e-07
2.50405e-07
2.68247e-07
2.4659e-07
1.87057e-07
9.32475e-08
-2.8288e-08
-1.69774e-07
-3.26094e-07
-4.7307e-07
-3.2158e-07
-4.28202e-07
-5.26222e-07
-6.00416e-07
-6.61347e-07
-7.1514e-07
-7.65204e-07
-8.14092e-07
-8.65518e-07
-9.18645e-07
-9.74185e-07
-1.03163e-06
-1.08864e-06
-1.14375e-06
-1.19616e-06
-1.24158e-06
-1.27686e-06
-1.29742e-06
-1.30345e-06
-1.28972e-06
-1.25131e-06
-1.19014e-06
-1.10395e-06
-9.92836e-07
-8.59803e-07
-7.07402e-07
-5.41842e-07
-3.74421e-07
-2.10393e-07
-6.13442e-08
6.08486e-08
1.48621e-07
1.93186e-07
1.90337e-07
1.39756e-07
4.67558e-08
-8.26169e-08
-2.40276e-07
-4.183e-07
-5.88389e-07
-5.03618e-07
-6.11898e-07
-7.10863e-07
-7.88975e-07
-8.52513e-07
-9.1019e-07
-9.65993e-07
-1.0226e-06
-1.08204e-06
-1.1441e-06
-1.2112e-06
-1.28218e-06
-1.35419e-06
-1.4262e-06
-1.49487e-06
-1.55699e-06
-1.61011e-06
-1.64986e-06
-1.67098e-06
-1.66998e-06
-1.64287e-06
-1.58943e-06
-1.50371e-06
-1.3879e-06
-1.24185e-06
-1.07068e-06
-8.79597e-07
-6.76457e-07
-4.72877e-07
-2.81004e-07
-1.13896e-07
1.4338e-08
9.56945e-08
1.21074e-07
8.76171e-08
5.83547e-10
-1.35299e-07
-3.08184e-07
-5.10388e-07
-7.06386e-07
-7.14435e-07
-8.23758e-07
-9.24603e-07
-1.0037e-06
-1.07049e-06
-1.1324e-06
-1.19404e-06
-1.25697e-06
-1.3252e-06
-1.39974e-06
-1.47998e-06
-1.5645e-06
-1.65289e-06
-1.74323e-06
-1.8313e-06
-1.91531e-06
-1.98807e-06
-2.04795e-06
-2.08892e-06
-2.10658e-06
-2.0951e-06
-2.05147e-06
-1.97101e-06
-1.85298e-06
-1.69864e-06
-1.5079e-06
-1.28946e-06
-1.04912e-06
-8.00192e-07
-5.59025e-07
-3.37939e-07
-1.56382e-07
-2.86794e-08
3.49391e-08
2.86858e-08
-4.6635e-08
-1.83053e-07
-3.71211e-07
-5.97876e-07
-8.23587e-07
-9.53758e-07
-1.06257e-06
-1.16484e-06
-1.24479e-06
-1.31395e-06
-1.37986e-06
-1.44652e-06
-1.51796e-06
-1.5961e-06
-1.68117e-06
-1.77597e-06
-1.87581e-06
-1.98234e-06
-2.09266e-06
-2.20244e-06
-2.3079e-06
-2.40688e-06
-2.49071e-06
-2.55523e-06
-2.59558e-06
-2.60455e-06
-2.57495e-06
-2.50599e-06
-2.3907e-06
-2.22964e-06
-2.0225e-06
-1.77614e-06
-1.49803e-06
-1.20063e-06
-9.00935e-07
-6.18804e-07
-3.72581e-07
-1.8465e-07
-6.94134e-08
-3.79956e-08
-9.1938e-08
-2.24149e-07
-4.23352e-07
-6.7862e-07
-9.35872e-07
-1.22115e-06
-1.32972e-06
-1.43065e-06
-1.51247e-06
-1.58311e-06
-1.65843e-06
-1.72448e-06
-1.80383e-06
-1.89125e-06
-1.98847e-06
-2.09516e-06
-2.21251e-06
-2.33882e-06
-2.46969e-06
-2.60225e-06
-2.73515e-06
-2.8605e-06
-2.97202e-06
-3.06501e-06
-3.132e-06
-3.16459e-06
-3.15671e-06
-3.10229e-06
-2.99536e-06
-2.83229e-06
-2.61431e-06
-2.34275e-06
-2.02635e-06
-1.67806e-06
-1.3163e-06
-9.61006e-07
-6.39403e-07
-3.77393e-07
-1.95589e-07
-1.13029e-07
-1.33232e-07
-2.53993e-07
-4.6155e-07
-7.42994e-07
-1.03596e-06
-1.51501e-06
-1.62092e-06
-1.72233e-06
-1.80478e-06
-1.87673e-06
-1.94874e-06
-2.02595e-06
-2.11279e-06
-2.20808e-06
-2.31631e-06
-2.43721e-06
-2.57113e-06
-2.71571e-06
-2.86974e-06
-3.02786e-06
-3.18664e-06
-3.34071e-06
-3.4842e-06
-3.60858e-06
-3.70583e-06
-3.76923e-06
-3.7875e-06
-3.75438e-06
-3.66034e-06
-3.50173e-06
-3.27621e-06
-2.98326e-06
-2.63214e-06
-2.23223e-06
-1.80238e-06
-1.36915e-06
-9.61622e-07
-6.1073e-07
-3.47009e-07
-1.96008e-07
-1.68267e-07
-2.66129e-07
-4.76815e-07
-7.84192e-07
-1.11496e-06
-1.83408e-06
-1.93787e-06
-2.03881e-06
-2.11998e-06
-2.19446e-06
-2.26904e-06
-2.34891e-06
-2.43862e-06
-2.54186e-06
-2.6601e-06
-2.79362e-06
-2.94433e-06
-3.10695e-06
-3.28277e-06
-3.4665e-06
-3.65398e-06
-3.83841e-06
-4.01571e-06
-4.17305e-06
-4.30674e-06
-4.40197e-06
-4.45183e-06
-4.44428e-06
-4.37053e-06
-4.22278e-06
-3.99611e-06
-3.68893e-06
-3.30434e-06
-2.85594e-06
-2.35946e-06
-1.84235e-06
-1.33807e-06
-8.8481e-07
-5.21058e-07
-2.83511e-07
-1.92011e-07
-2.5222e-07
-4.59084e-07
-7.90511e-07
-1.16046e-06
-2.17652e-06
-2.27811e-06
-2.37832e-06
-2.45795e-06
-2.53149e-06
-2.6062e-06
-2.68701e-06
-2.78038e-06
-2.88863e-06
-3.01484e-06
-3.15919e-06
-3.32347e-06
-3.50435e-06
-3.70099e-06
-3.90897e-06
-4.12567e-06
-4.34212e-06
-4.5522e-06
-4.74641e-06
-4.91622e-06
-5.04784e-06
-5.13311e-06
-5.15661e-06
-5.10813e-06
-4.97797e-06
-4.75593e-06
-4.44061e-06
-4.03134e-06
-3.53613e-06
-2.97477e-06
-2.37102e-06
-1.76295e-06
-1.19627e-06
-7.17602e-07
-3.72585e-07
-1.96265e-07
-2.03894e-07
-3.92532e-07
-7.46642e-07
-1.15667e-06
-2.54057e-06
-2.63963e-06
-2.7388e-06
-2.8166e-06
-2.88786e-06
-2.96086e-06
-3.04013e-06
-3.13278e-06
-3.24313e-06
-3.37335e-06
-3.52522e-06
-3.69979e-06
-3.89718e-06
-4.11275e-06
-4.34422e-06
-4.58676e-06
-4.83456e-06
-5.07844e-06
-5.30908e-06
-5.51781e-06
-5.68837e-06
-5.80977e-06
-5.86937e-06
-5.85126e-06
-5.74192e-06
-5.53275e-06
-5.21485e-06
-4.78699e-06
-4.25315e-06
-3.6299e-06
-2.94144e-06
-2.22588e-06
-1.53411e-06
-9.22806e-07
-4.52045e-07
-1.70124e-07
-1.04232e-07
-2.62012e-07
-6.31597e-07
-1.08234e-06
-2.92447e-06
-3.02321e-06
-3.12074e-06
-3.19595e-06
-3.26217e-06
-3.32804e-06
-3.40158e-06
-3.49009e-06
-3.5972e-06
-3.72812e-06
-3.88339e-06
-4.06591e-06
-4.27471e-06
-4.50572e-06
-4.75902e-06
-5.02636e-06
-5.30286e-06
-5.57913e-06
-5.84606e-06
-6.09097e-06
-6.30122e-06
-6.46097e-06
-6.55653e-06
-6.5704e-06
-6.48808e-06
-6.29636e-06
-5.98259e-06
-5.54191e-06
-4.97739e-06
-4.29691e-06
-3.52718e-06
-2.7034e-06
-1.88087e-06
-1.12508e-06
-5.07803e-07
-9.48684e-08
6.51745e-08
-4.52457e-08
-4.19881e-07
-9.10368e-07
-3.32746e-06
-3.42714e-06
-3.52391e-06
-3.59394e-06
-3.65194e-06
-3.70775e-06
-3.77045e-06
-3.84773e-06
-3.94527e-06
-4.0705e-06
-4.22412e-06
-4.40918e-06
-4.62416e-06
-4.86975e-06
-5.1386e-06
-5.42812e-06
-5.73128e-06
-6.03774e-06
-6.33802e-06
-6.61849e-06
-6.86582e-06
-7.06434e-06
-7.19611e-06
-7.24321e-06
-7.18902e-06
-7.01578e-06
-6.71158e-06
-6.26381e-06
-5.67297e-06
-4.94376e-06
-4.09628e-06
-3.16674e-06
-2.20951e-06
-1.2975e-06
-5.16659e-07
4.81243e-08
3.30791e-07
2.8998e-07
-7.996e-08
-6.06679e-07
-3.74964e-06
-3.85313e-06
-3.94913e-06
-4.01348e-06
-4.05653e-06
-4.09614e-06
-4.13904e-06
-4.19731e-06
-4.28025e-06
-4.39133e-06
-4.53799e-06
-4.71915e-06
-4.93686e-06
-5.18847e-06
-5.47146e-06
-5.7797e-06
-6.10396e-06
-6.43799e-06
-6.76872e-06
-7.08216e-06
-7.36489e-06
-7.59723e-06
-7.76337e-06
-7.84246e-06
-7.81478e-06
-7.66274e-06
-7.36693e-06
-6.91737e-06
-6.30354e-06
-5.52982e-06
-4.61041e-06
-3.57743e-06
-2.48514e-06
-1.41066e-06
-4.4946e-07
2.93632e-07
7.2572e-07
7.78627e-07
4.29654e-07
-1.27885e-07
-4.19311e-06
-4.30471e-06
-4.40162e-06
-4.45386e-06
-4.4776e-06
-4.49088e-06
-4.50555e-06
-4.53587e-06
-4.59303e-06
-4.68285e-06
-4.81351e-06
-4.98514e-06
-5.20072e-06
-5.45492e-06
-5.74574e-06
-6.06768e-06
-6.41187e-06
-6.76779e-06
-7.12445e-06
-7.46735e-06
-7.78043e-06
-8.04393e-06
-8.24004e-06
-8.34715e-06
-8.34269e-06
-8.20764e-06
-7.92056e-06
-7.46531e-06
-6.82972e-06
-6.01447e-06
-5.02586e-06
-3.89259e-06
-2.66524e-06
-1.42077e-06
-2.65879e-07
6.78674e-07
1.28976e-06
1.4683e-06
1.15943e-06
5.80112e-07
-4.66366e-06
-4.78736e-06
-4.88617e-06
-4.92144e-06
-4.91514e-06
-4.89007e-06
-4.86415e-06
-4.85446e-06
-4.87451e-06
-4.9353e-06
-5.04269e-06
-5.19776e-06
-5.40324e-06
-5.65609e-06
-5.95188e-06
-6.2821e-06
-6.64136e-06
-7.01701e-06
-7.3957e-06
-7.76274e-06
-8.10044e-06
-8.39079e-06
-8.61097e-06
-8.74019e-06
-8.7544e-06
-8.62878e-06
-8.34385e-06
-7.87865e-06
-7.22009e-06
-6.35774e-06
-5.29904e-06
-4.0648e-06
-2.69963e-06
-1.28066e-06
8.19972e-08
1.25164e-06
2.07639e-06
2.41515e-06
2.17452e-06
1.58566e-06
-5.17213e-06
-5.31407e-06
-5.41401e-06
-5.4221e-06
-5.37197e-06
-5.29242e-06
-5.20994e-06
-5.14575e-06
-5.11887e-06
-5.13832e-06
-5.21445e-06
-5.34709e-06
-5.53815e-06
-5.78419e-06
-6.08e-06
-6.41809e-06
-6.7879e-06
-7.17801e-06
-7.5751e-06
-7.96191e-06
-8.31987e-06
-8.62935e-06
-8.8679e-06
-9.01103e-06
-9.03359e-06
-8.91123e-06
-8.62004e-06
-8.13584e-06
-7.44174e-06
-6.52759e-06
-5.39187e-06
-4.05008e-06
-2.54056e-06
-9.36166e-07
6.51368e-07
2.07143e-06
3.14808e-06
3.69205e-06
3.55496e-06
2.97549e-06
-5.73913e-06
-5.90672e-06
-6.00208e-06
-5.96778e-06
-5.85139e-06
-5.69587e-06
-5.53775e-06
-5.40353e-06
-5.31522e-06
-5.28532e-06
-5.32149e-06
-5.42682e-06
-5.59942e-06
-5.83588e-06
-6.12784e-06
-6.46985e-06
-6.84656e-06
-7.24888e-06
-7.6589e-06
-8.06115e-06
-8.43415e-06
-8.75678e-06
-9.00541e-06
-9.15457e-06
-9.17647e-06
-9.04674e-06
-8.73519e-06
-8.22073e-06
-7.4797e-06
-6.49759e-06
-5.27034e-06
-3.80729e-06
-2.13967e-06
-3.35155e-07
1.50078e-06
3.20804e-06
4.58289e-06
5.38714e-06
5.4019e-06
4.86196e-06
-6.40163e-06
-6.598e-06
-6.67647e-06
-6.5729e-06
-6.35926e-06
-6.10046e-06
-5.84141e-06
-5.61933e-06
-5.45406e-06
-5.36486e-06
-5.35598e-06
-5.42873e-06
-5.57892e-06
-5.80374e-06
-6.09223e-06
-6.43433e-06
-6.81867e-06
-7.22967e-06
-7.65112e-06
-8.06186e-06
-8.44535e-06
-8.77437e-06
-9.02578e-06
-9.1716e-06
-9.18425e-06
-9.03305e-06
-8.69062e-06
-8.12862e-06
-7.32316e-06
-6.25623e-06
-4.91673e-06
-3.3114e-06
-1.46213e-06
5.72921e-07
2.69183e-06
4.73278e-06
6.47106e-06
7.61172e-06
7.85049e-06
7.39573e-06
-7.22534e-06
-7.44485e-06
-7.47913e-06
-7.25969e-06
-6.90378e-06
-6.50042e-06
-6.11318e-06
-5.78121e-06
-5.52997e-06
-5.37124e-06
-5.31204e-06
-5.34977e-06
-5.47938e-06
-5.69049e-06
-5.97506e-06
-6.31801e-06
-6.70697e-06
-7.12418e-06
-7.5522e-06
-7.97074e-06
-8.358e-06
-8.68842e-06
-8.93477e-06
-9.0682e-06
-9.05938e-06
-8.87849e-06
-8.48948e-06
-7.86585e-06
-6.97913e-06
-5.80587e-06
-4.33203e-06
-2.55458e-06
-4.89711e-07
1.81465e-06
4.26999e-06
6.7171e-06
8.91172e-06
1.05002e-05
1.10711e-05
1.07848e-05
-8.33013e-06
-8.53924e-06
-8.46714e-06
-8.05522e-06
-7.48902e-06
-6.89286e-06
-6.34283e-06
-5.87839e-06
-5.527e-06
-5.29566e-06
-5.18559e-06
-5.18821e-06
-5.29669e-06
-5.49855e-06
-5.778e-06
-6.12341e-06
-6.51565e-06
-6.93888e-06
-7.37254e-06
-7.79487e-06
-8.18048e-06
-8.50551e-06
-8.74122e-06
-8.8561e-06
-8.81865e-06
-8.59505e-06
-8.1504e-06
-7.45224e-06
-6.46848e-06
-5.17052e-06
-3.53737e-06
-1.55929e-06
7.604e-07
3.38841e-06
6.25039e-06
9.2029e-06
1.19967e-05
1.42094e-05
1.52997e-05
1.53345e-05
-9.93733e-06
-1.0038e-05
-9.72275e-06
-8.98851e-06
-8.11434e-06
-7.26134e-06
-6.50912e-06
-5.89556e-06
-5.43362e-06
-5.12794e-06
-4.96785e-06
-4.941e-06
-5.03256e-06
-5.2269e-06
-5.50764e-06
-5.85614e-06
-6.2543e-06
-6.68222e-06
-7.11917e-06
-7.54135e-06
-7.92521e-06
-8.24075e-06
-8.45997e-06
-8.55056e-06
-8.4783e-06
-8.20702e-06
-7.69975e-06
-6.92003e-06
-5.82932e-06
-4.39541e-06
-2.58753e-06
-3.82113e-07
2.22976e-06
5.23629e-06
8.59488e-06
1.21898e-05
1.57822e-05
1.88957e-05
2.0829e-05
2.14971e-05
-1.24375e-05
-1.21806e-05
-1.13521e-05
-1.00795e-05
-8.75977e-06
-7.57189e-06
-6.57802e-06
-5.79769e-06
-5.22667e-06
-4.85171e-06
-4.65032e-06
-4.6032e-06
-4.68693e-06
-4.88268e-06
-5.16822e-06
-5.52357e-06
-5.92954e-06
-6.36447e-06
-6.804e-06
-7.22679e-06
-7.60468e-06
-7.9101e-06
-8.11173e-06
-8.17658e-06
-8.06743e-06
-7.74903e-06
-7.17961e-06
-6.31957e-06
-5.12528e-06
-3.55573e-06
-1.5689e-06
8.7176e-07
3.80076e-06
7.2386e-06
1.11851e-05
1.55854e-05
2.02496e-05
2.46805e-05
2.79991e-05
2.98754e-05
-1.64857e-05
-1.5321e-05
-1.34352e-05
-1.12808e-05
-9.33776e-06
-7.73175e-06
-6.4695e-06
-5.52485e-06
-4.86035e-06
-4.43687e-06
-4.21619e-06
-4.16574e-06
-4.25685e-06
-4.46414e-06
-4.76326e-06
-5.13284e-06
-5.55071e-06
-5.99376e-06
-6.44072e-06
-6.86425e-06
-7.2384e-06
-7.53571e-06
-7.72174e-06
-7.76547e-06
-7.62777e-06
-7.27039e-06
-6.64993e-06
-5.72392e-06
-4.44232e-06
-2.75779e-06
-6.13958e-07
2.04552e-06
5.28639e-06
9.17506e-06
1.37814e-05
1.91567e-05
2.52342e-05
3.159e-05
3.72064e-05
4.12703e-05
-2.38382e-05
-2.00185e-05
-1.58026e-05
-1.22557e-05
-9.53178e-06
-7.48866e-06
-5.99473e-06
-4.94406e-06
-4.24468e-06
-3.82184e-06
-3.62267e-06
-3.6009e-06
-3.72329e-06
-3.96074e-06
-4.28872e-06
-4.68266e-06
-5.12077e-06
-5.58042e-06
-6.0397e-06
-6.47279e-06
-6.85163e-06
-7.14785e-06
-7.33032e-06
-7.36514e-06
-7.21459e-06
-6.83772e-06
-6.1922e-06
-5.22969e-06
-3.89932e-06
-2.14364e-06
1.02124e-07
2.92011e-06
6.40476e-06
1.06901e-05
1.59429e-05
2.23837e-05
3.02143e-05
3.93921e-05
4.92678e-05
5.81008e-05
-4.14613e-05
-2.72771e-05
-1.75123e-05
-1.20475e-05
-8.64969e-06
-6.36169e-06
-4.8336e-06
-3.8452e-06
-3.23992e-06
-2.91557e-06
-2.80566e-06
-2.8634e-06
-3.05316e-06
-3.3492e-06
-3.72574e-06
-4.16205e-06
-4.63636e-06
-5.12636e-06
-5.61125e-06
-6.06688e-06
-6.46657e-06
-6.78123e-06
-6.98115e-06
-7.03092e-06
-6.89505e-06
-6.53281e-06
-5.90025e-06
-4.95041e-06
-3.62803e-06
-1.87469e-06
3.87286e-07
3.24742e-06
6.83182e-06
1.13272e-05
1.70182e-05
2.43569e-05
3.40381e-05
4.71459e-05
6.56342e-05
8.84455e-05
-7.91872e-05
-3.74609e-05
-1.81907e-05
-1.08995e-05
-7.11626e-06
-4.75988e-06
-3.33821e-06
-2.52221e-06
-2.0881e-06
-1.91233e-06
-1.92635e-06
-2.08642e-06
-2.3615e-06
-2.72721e-06
-3.16285e-06
-3.64942e-06
-4.16772e-06
-4.69805e-06
-5.21974e-06
-5.70929e-06
-6.14183e-06
-6.4898e-06
-6.72334e-06
-6.80874e-06
-6.71025e-06
-6.38808e-06
-5.79928e-06
-4.89631e-06
-3.62537e-06
-1.9252e-06
2.79846e-07
3.08651e-06
6.63265e-06
1.11326e-05
1.69533e-05
2.47848e-05
3.60057e-05
5.35674e-05
8.46051e-05
0.00013634
)
;

boundaryField
{
    movingWall
    {
        type            zeroGradient;
    }
    fixedWalls
    {
        type            zeroGradient;
    }
    frontAndBack
    {
        type            empty;
    }
}


// ************************************************************************* //
