/*--------------------------------*- C++ -*----------------------------------*\
  =========                 |
  \\      /  F ield         | OpenFOAM: The Open Source CFD Toolbox
   \\    /   O peration     | Website:  https://openfoam.org
    \\  /    A nd           | Version:  8
     \\/     M anipulation  |
\*---------------------------------------------------------------------------*/
FoamFile
{
    version     2.0;
    format      ascii;
    class       surfaceScalarField;
    location    "32";
    object      phi;
}
// * * * * * * * * * * * * * * * * * * * * * * * * * * * * * * * * * * * * * //

dimensions      [0 3 -1 0 0 0 0];

internalField   nonuniform List<scalar> 
3120
(
2.24618e-11
-2.26824e-11
3.07764e-11
-8.07084e-12
2.19613e-12
2.80936e-11
-6.62332e-11
6.89782e-11
-1.7111e-10
1.04772e-10
-3.05446e-10
1.35293e-10
-4.62755e-10
1.56e-10
-6.36745e-10
1.74238e-10
-8.21115e-10
1.84338e-10
-1.0111e-09
1.88661e-10
-1.20173e-09
1.90823e-10
-1.38965e-09
1.88045e-10
-1.57059e-09
1.80494e-10
-1.74045e-09
1.70835e-10
-1.89579e-09
1.55444e-10
-2.03205e-09
1.36553e-10
-2.14647e-09
1.12968e-10
-2.23408e-09
8.8148e-11
-2.29177e-09
5.72686e-11
-2.31659e-09
2.36539e-11
-2.30577e-09
-1.08454e-11
-2.25821e-09
-4.85338e-11
-2.17328e-09
-8.46378e-11
-2.0527e-09
-1.20249e-10
-1.89841e-09
-1.544e-10
-1.71551e-09
-1.83665e-10
-1.50859e-09
-2.05656e-10
-1.28576e-09
-2.22611e-10
-1.05487e-09
-2.31212e-10
-8.24542e-10
-2.31636e-10
-6.0475e-10
-2.20624e-10
-4.03867e-10
-2.00805e-10
-2.30564e-10
-1.72353e-10
-9.17733e-11
-1.39179e-10
7.30305e-12
-9.90939e-11
6.48176e-11
-5.67163e-11
8.1653e-11
-1.71902e-11
6.43766e-11
1.68663e-11
2.76769e-11
3.55499e-11
2.76097e-11
9.17201e-12
-3.10817e-11
-3.45184e-11
3.4916e-11
-1.61543e-10
1.57936e-10
-3.83461e-10
2.89587e-10
-6.87799e-10
4.11682e-10
-1.06899e-09
5.10915e-10
-1.49987e-09
5.93748e-10
-1.97806e-09
6.49558e-10
-2.48219e-09
6.87512e-10
-2.99731e-09
7.07934e-10
-3.51526e-09
7.09413e-10
-4.0257e-09
6.96515e-10
-4.51325e-09
6.67867e-10
-4.96986e-09
6.26025e-10
-5.38564e-09
5.70994e-10
-5.74752e-09
5.00254e-10
-6.04455e-09
4.16162e-10
-6.27521e-09
3.14574e-10
-6.42058e-09
2.03551e-10
-6.47685e-09
8.21172e-11
-6.44219e-09
-4.72243e-11
-6.30677e-09
-1.79435e-10
-6.07714e-09
-3.14441e-10
-5.75649e-09
-4.44886e-10
-5.34454e-09
-5.61966e-10
-4.86023e-09
-6.6784e-10
-4.31796e-09
-7.50398e-10
-3.73024e-09
-8.09967e-10
-3.12453e-09
-8.39629e-10
-2.51519e-09
-8.36337e-10
-1.93089e-09
-8.03779e-10
-1.39103e-09
-7.36968e-10
-9.22707e-10
-6.46897e-10
-5.30365e-10
-5.28468e-10
-2.34961e-10
-3.94065e-10
-4.2732e-11
-2.54611e-10
5.73997e-11
-1.14899e-10
7.40428e-11
1.43673e-12
3.73265e-11
7.38484e-11
6.51779e-11
-2.84481e-11
-1.77827e-12
-1.62722e-10
1.6658e-10
-4.2187e-10
4.15559e-10
-8.10478e-10
6.77939e-10
-1.31975e-09
9.18996e-10
-1.9256e-09
1.12254e-09
-2.61533e-09
1.28033e-09
-3.36238e-09
1.39601e-09
-4.14815e-09
1.47241e-09
-4.9523e-09
1.51045e-09
-5.75461e-09
1.51276e-09
-6.54377e-09
1.48292e-09
-7.29424e-09
1.42188e-09
-7.9941e-09
1.32743e-09
-8.63052e-09
1.20329e-09
-9.18049e-09
1.04845e-09
-9.6351e-09
8.64386e-10
-9.97634e-09
6.55962e-10
-1.01913e-08
4.20061e-10
-1.02706e-08
1.65507e-10
-1.02089e-08
-1.08735e-10
-1.00013e-08
-3.89728e-10
-9.6484e-09
-6.67129e-10
-9.15463e-09
-9.36581e-10
-8.53505e-09
-1.18387e-09
-7.79886e-09
-1.39982e-09
-6.97922e-09
-1.57561e-09
-6.08909e-09
-1.69729e-09
-5.16698e-09
-1.76248e-09
-4.24262e-09
-1.76273e-09
-3.34425e-09
-1.69699e-09
-2.51493e-09
-1.57192e-09
-1.77248e-09
-1.38761e-09
-1.14411e-09
-1.15408e-09
-6.52637e-10
-8.88904e-10
-2.97398e-10
-6.05831e-10
-8.23971e-11
-3.31407e-10
1.40936e-11
-9.39773e-11
2.1599e-11
6.33735e-11
8.74233e-11
-7.31215e-11
7.26807e-11
-3.14395e-10
4.03957e-10
-7.17776e-10
8.25219e-10
-1.2845e-09
1.24542e-09
-1.99712e-09
1.62809e-09
-2.82983e-09
1.95215e-09
-3.75815e-09
2.20981e-09
-4.75455e-09
2.39627e-09
-5.79799e-09
2.51594e-09
-6.86148e-09
2.57348e-09
-7.91793e-09
2.5726e-09
-8.95304e-09
2.51464e-09
-9.93918e-09
2.40559e-09
-1.08529e-08
2.24425e-09
-1.1682e-08
2.0312e-09
-1.23966e-08
1.76782e-09
-1.29813e-08
1.45598e-09
-1.34236e-08
1.09465e-09
-1.36973e-08
6.96949e-10
-1.38022e-08
2.62973e-10
-1.3719e-08
-1.92728e-10
-1.34466e-08
-6.59761e-10
-1.29929e-08
-1.12613e-09
-1.23551e-08
-1.57206e-09
-1.15566e-08
-1.98533e-09
-1.06101e-08
-2.34444e-09
-9.54849e-09
-2.63714e-09
-8.39986e-09
-2.84473e-09
-7.20133e-09
-2.95895e-09
-5.99415e-09
-2.97e-09
-4.81933e-09
-2.87459e-09
-3.71667e-09
-2.67665e-09
-2.71794e-09
-2.38435e-09
-1.8594e-09
-2.01286e-09
-1.16121e-09
-1.58687e-09
-6.34129e-10
-1.13273e-09
-2.79076e-10
-6.86493e-10
-8.14224e-11
-2.95295e-10
-3.44771e-12
-1.11364e-11
8.35577e-11
-1.20014e-10
1.92435e-10
-4.67537e-10
7.51367e-10
-1.0276e-09
1.38055e-09
-1.77507e-09
1.99737e-09
-2.68982e-09
2.54485e-09
-3.73998e-09
3.00584e-09
-4.90032e-09
3.36463e-09
-6.13356e-09
3.62938e-09
-7.41621e-09
3.79565e-09
-8.71762e-09
3.87247e-09
-1.00091e-08
3.86591e-09
-1.12658e-08
3.77507e-09
-1.24633e-08
3.60207e-09
-1.35718e-08
3.35644e-09
-1.45749e-08
3.02942e-09
-1.54392e-08
2.6329e-09
-1.61506e-08
2.16293e-09
-1.66813e-08
1.62704e-09
-1.70177e-08
1.0335e-09
-1.71457e-08
3.91981e-10
-1.70513e-08
-2.82973e-10
-1.6733e-08
-9.76817e-10
-1.61932e-08
-1.66547e-09
-1.54386e-08
-2.32845e-09
-1.44854e-08
-2.93938e-09
-1.33578e-08
-3.47535e-09
-1.20837e-08
-3.90984e-09
-1.07034e-08
-4.22916e-09
-9.25462e-09
-4.40575e-09
-7.78563e-09
-4.43578e-09
-6.34654e-09
-4.31538e-09
-4.98156e-09
-4.04404e-09
-3.73017e-09
-3.6326e-09
-2.63879e-09
-3.1095e-09
-1.72717e-09
-2.49672e-09
-1.01395e-09
-1.84267e-09
-5.06279e-10
-1.19509e-09
-1.88106e-10
-6.11788e-10
-3.38771e-11
-1.66324e-10
4.94596e-11
-1.63732e-10
3.57041e-10
-6.21352e-10
1.20692e-09
-1.32869e-09
2.09163e-09
-2.26225e-09
2.92536e-09
-3.37622e-09
3.65973e-09
-4.64391e-09
4.26879e-09
-6.02082e-09
4.74889e-09
-7.48211e-09
5.0904e-09
-8.98956e-09
5.30648e-09
-1.05117e-08
5.3994e-09
-1.20227e-08
5.37412e-09
-1.34912e-08
5.23855e-09
-1.48806e-08
4.99793e-09
-1.61762e-08
4.64597e-09
-1.73382e-08
4.19422e-09
-1.8348e-08
3.64074e-09
-1.91784e-08
2.98927e-09
-1.98017e-08
2.25179e-09
-2.02035e-08
1.43349e-09
-2.0366e-08
5.51344e-10
-2.0277e-08
-3.74218e-10
-1.99274e-08
-1.32242e-09
-1.93251e-08
-2.26818e-09
-1.84722e-08
-3.17831e-09
-1.739e-08
-4.02112e-09
-1.60985e-08
-4.76349e-09
-1.46397e-08
-5.37673e-09
-1.30386e-08
-5.82201e-09
-1.13561e-08
-6.0901e-09
-9.63866e-09
-6.15745e-09
-7.9382e-09
-6.01379e-09
-6.30882e-09
-5.66911e-09
-4.80478e-09
-5.13735e-09
-3.46469e-09
-4.44346e-09
-2.33182e-09
-3.63431e-09
-1.42186e-09
-2.75344e-09
-7.47703e-10
-1.86901e-09
-3.02941e-10
-1.05741e-09
-6.48773e-11
-4.01901e-10
-1.54521e-11
-2.06005e-10
5.63428e-10
-7.68843e-10
1.76709e-09
-1.62288e-09
2.95176e-09
-2.73293e-09
4.0317e-09
-4.04418e-09
4.97016e-09
-5.51489e-09
5.74176e-09
-7.11053e-09
6.33906e-09
-8.78476e-09
6.76643e-09
-1.0508e-08
7.02872e-09
-1.22441e-08
7.13422e-09
-1.39602e-08
7.09093e-09
-1.56238e-08
6.90459e-09
-1.72058e-08
6.57653e-09
-1.86726e-08
6.11643e-09
-1.99952e-08
5.51819e-09
-2.11488e-08
4.79244e-09
-2.20983e-08
3.9442e-09
-2.28241e-08
2.97789e-09
-2.33017e-08
1.91121e-09
-2.35118e-08
7.63005e-10
-2.34436e-08
-4.45571e-10
-2.30868e-08
-1.68267e-09
-2.24423e-08
-2.91424e-09
-2.15149e-08
-4.1045e-09
-2.03236e-08
-5.21276e-09
-1.88934e-08
-6.19368e-09
-1.72536e-08
-7.00875e-09
-1.54563e-08
-7.62547e-09
-1.35444e-08
-8.00133e-09
-1.15745e-08
-8.12344e-09
-9.61328e-09
-7.98011e-09
-7.71496e-09
-7.56961e-09
-5.94078e-09
-6.9118e-09
-4.34767e-09
-6.04141e-09
-2.97212e-09
-5.00507e-09
-1.85048e-09
-3.87378e-09
-1.00096e-09
-2.72152e-09
-4.1906e-10
-1.63678e-09
-9.62988e-11
-7.26512e-10
-1.11705e-10
-2.45786e-10
8.09641e-10
-9.06891e-10
2.42562e-09
-1.90576e-09
3.95139e-09
-3.18235e-09
5.31302e-09
-4.68189e-09
6.47175e-09
-6.35283e-09
7.41358e-09
-8.15225e-09
8.13539e-09
-1.00336e-08
8.64867e-09
-1.19631e-08
8.95635e-09
-1.39012e-08
9.07215e-09
-1.58141e-08
9.00237e-09
-1.76708e-08
8.75787e-09
-1.94309e-08
8.34137e-09
-2.10743e-08
7.754e-09
-2.25548e-08
7.00343e-09
-2.3853e-08
6.09025e-09
-2.49363e-08
5.0219e-09
-2.57732e-08
3.81587e-09
-2.6341e-08
2.48292e-09
-2.6621e-08
1.0437e-09
-2.6594e-08
-4.68976e-10
-2.62495e-08
-2.02378e-09
-2.55885e-08
-3.57511e-09
-2.46113e-08
-5.08122e-09
-2.33316e-08
-6.48957e-09
-2.17788e-08
-7.74829e-09
-1.99848e-08
-8.80698e-09
-1.7988e-08
-9.61667e-09
-1.58534e-08
-1.0142e-08
-1.36338e-08
-1.03442e-08
-1.13987e-08
-1.02135e-08
-9.21714e-09
-9.74773e-09
-7.15906e-09
-8.96825e-09
-5.28701e-09
-7.91196e-09
-3.65816e-09
-6.63989e-09
-2.30758e-09
-5.22316e-09
-1.26484e-09
-3.76252e-09
-5.41338e-10
-2.36154e-09
-1.27537e-10
-1.14109e-09
-2.38781e-10
-2.83047e-10
1.09248e-09
-1.03566e-09
3.17928e-09
-2.1681e-09
5.08432e-09
-3.60781e-09
6.75025e-09
-5.28628e-09
8.14965e-09
-7.14792e-09
9.27451e-09
-9.13811e-09
1.01301e-08
-1.12187e-08
1.07265e-08
-1.33438e-08
1.10818e-08
-1.54774e-08
1.12031e-08
-1.75789e-08
1.11079e-08
-1.96201e-08
1.07976e-08
-2.15617e-08
1.02829e-08
-2.3375e-08
9.56555e-09
-2.50211e-08
8.6505e-09
-2.64742e-08
7.53948e-09
-2.76943e-08
6.24794e-09
-2.86593e-08
4.77951e-09
-2.93401e-08
3.16096e-09
-2.97088e-08
1.41173e-09
-2.97519e-08
-4.30416e-10
-2.94452e-08
-2.3257e-09
-2.87957e-08
-4.23122e-09
-2.77931e-08
-6.08323e-09
-2.64511e-08
-7.83032e-09
-2.47964e-08
-9.40603e-09
-2.28572e-08
-1.0747e-08
-2.06793e-08
-1.17942e-08
-1.83176e-08
-1.24985e-08
-1.58431e-08
-1.28204e-08
-1.33246e-08
-1.27292e-08
-1.08446e-08
-1.22299e-08
-8.48033e-09
-1.13337e-08
-6.31069e-09
-1.00863e-08
-4.39725e-09
-8.55187e-09
-2.80006e-09
-6.82509e-09
-1.5488e-09
-5.01103e-09
-6.706e-10
-3.24187e-09
-1.59482e-10
-1.65227e-09
-3.98468e-10
-3.16384e-10
1.40952e-09
-1.15629e-09
4.01789e-09
-2.41274e-09
6.34054e-09
-4.00295e-09
8.33812e-09
-5.84922e-09
9.99383e-09
-7.88883e-09
1.13121e-08
-1.00637e-08
1.23084e-08
-1.23276e-08
1.29935e-08
-1.46427e-08
1.3391e-08
-1.6958e-08
1.35222e-08
-1.92458e-08
1.33933e-08
-2.14661e-08
1.30195e-08
-2.35855e-08
1.24049e-08
-2.55715e-08
1.15503e-08
-2.73888e-08
1.04667e-08
-2.89994e-08
9.15626e-09
-3.03791e-08
7.625e-09
-3.14854e-08
5.89003e-09
-3.23001e-08
3.96975e-09
-3.27825e-08
1.89968e-09
-3.29196e-08
-2.93636e-10
-3.26873e-08
-2.55996e-09
-3.20733e-08
-4.84218e-09
-3.1079e-08
-7.08254e-09
-2.97015e-08
-9.20298e-09
-2.7967e-08
-1.11408e-08
-2.59018e-08
-1.28126e-08
-2.35519e-08
-1.41468e-08
-2.09735e-08
-1.508e-08
-1.82339e-08
-1.55568e-08
-1.54259e-08
-1.5543e-08
-1.26252e-08
-1.50271e-08
-9.93185e-09
-1.40242e-08
-7.43286e-09
-1.25798e-08
-5.21322e-09
-1.07702e-08
-3.33772e-09
-8.69702e-09
-1.86083e-09
-6.48826e-09
-8.11266e-10
-4.29128e-09
-1.94302e-10
-2.2656e-09
-5.93412e-10
-3.47361e-10
1.75728e-09
-1.26731e-09
4.93375e-09
-2.63632e-09
7.7147e-09
-4.36541e-09
1.00665e-08
-6.3654e-09
1.19956e-08
-8.56724e-09
1.35175e-08
-1.09178e-08
1.46541e-08
-1.33556e-08
1.54337e-08
-1.58416e-08
1.58811e-08
-1.83358e-08
1.60171e-08
-2.0797e-08
1.58585e-08
-2.31923e-08
1.54165e-08
-2.54902e-08
1.46976e-08
-2.76473e-08
1.37115e-08
-2.96371e-08
1.24544e-08
-3.14218e-08
1.09377e-08
-3.29686e-08
9.16867e-09
-3.42393e-08
7.16104e-09
-3.52026e-08
4.93665e-09
-3.58309e-08
2.52554e-09
-3.60929e-08
-3.56223e-11
-3.59609e-08
-2.68963e-09
-3.54243e-08
-5.38104e-09
-3.44635e-08
-8.03773e-09
-3.30885e-08
-1.05823e-08
-3.13019e-08
-1.29244e-08
-2.91341e-08
-1.49786e-08
-2.6629e-08
-1.6655e-08
-2.38387e-08
-1.78688e-08
-2.08377e-08
-1.85535e-08
-1.7724e-08
-1.86606e-08
-1.45856e-08
-1.81634e-08
-1.15369e-08
-1.70749e-08
-8.68227e-09
-1.54373e-08
-6.12208e-09
-1.33324e-08
-3.94008e-09
-1.08778e-08
-2.20831e-09
-8.22285e-09
-9.67419e-10
-5.53475e-09
-2.33191e-10
-2.9989e-09
-8.27322e-10
-3.76165e-10
2.13324e-09
-1.3618e-09
5.92545e-09
-2.83844e-09
9.18513e-09
-4.69034e-09
1.19168e-08
-6.82969e-09
1.41375e-08
-9.18165e-09
1.58705e-08
-1.16871e-08
1.71545e-08
-1.42846e-08
1.80324e-08
-1.69334e-08
1.85271e-08
-1.95919e-08
1.86714e-08
-2.2219e-08
1.84851e-08
-2.47838e-08
1.79777e-08
-2.72485e-08
1.7164e-08
-2.95827e-08
1.60424e-08
-3.17468e-08
1.46217e-08
-3.37098e-08
1.29023e-08
-3.54369e-08
1.08933e-08
-3.68861e-08
8.61386e-09
-3.80244e-08
6.07746e-09
-3.8824e-08
3.31973e-09
-3.92377e-08
3.82736e-10
-3.92435e-08
-2.68212e-09
-3.88173e-08
-5.81011e-09
-3.79352e-08
-8.91979e-09
-3.65927e-08
-1.19256e-08
-3.47927e-08
-1.47259e-08
-3.25533e-08
-1.72179e-08
-2.99137e-08
-1.92937e-08
-2.69272e-08
-2.08542e-08
-2.36714e-08
-2.18063e-08
-2.02447e-08
-2.20887e-08
-1.67541e-08
-2.16555e-08
-1.33242e-08
-2.05051e-08
-1.00795e-08
-1.8681e-08
-7.14335e-09
-1.62713e-08
-4.62216e-09
-1.34014e-08
-2.60196e-09
-1.02399e-08
-1.14354e-09
-6.99018e-09
-2.7932e-10
-3.867e-09
-1.10562e-09
-3.99892e-10
2.53295e-09
-1.44969e-09
6.97437e-09
-3.01347e-09
1.07478e-08
-4.97163e-09
1.38788e-08
-7.23765e-09
1.6398e-08
-9.72304e-09
1.83576e-08
-1.23625e-08
1.97998e-08
-1.51075e-08
2.07741e-08
-1.79006e-08
2.1324e-08
-2.07079e-08
2.14805e-08
-2.34911e-08
2.12673e-08
-2.62104e-08
2.07021e-08
-2.88411e-08
1.97926e-08
-3.13419e-08
1.85453e-08
-3.36836e-08
1.6961e-08
-3.58295e-08
1.50468e-08
-3.77408e-08
1.28094e-08
-3.93866e-08
1.02564e-08
-4.07191e-08
7.41344e-09
-4.17099e-08
4.30798e-09
-4.23092e-08
9.83238e-10
-4.24878e-08
-2.50459e-09
-4.22089e-08
-6.08789e-09
-4.14467e-08
-9.68243e-09
-4.018e-08
-1.31889e-08
-3.84075e-08
-1.64986e-08
-3.61336e-08
-1.94886e-08
-3.3396e-08
-2.20361e-08
-3.02353e-08
-2.40107e-08
-2.6741e-08
-2.53062e-08
-2.30034e-08
-2.58248e-08
-1.91459e-08
-2.5508e-08
-1.5313e-08
-2.4338e-08
-1.16498e-08
-2.23482e-08
-8.29703e-09
-1.96194e-08
-5.39328e-09
-1.63007e-08
-3.05262e-09
-1.25834e-08
-1.35031e-09
-8.69404e-09
-3.29675e-10
-4.88339e-09
-1.43604e-09
-4.20041e-10
2.95269e-09
-1.5226e-09
8.0744e-09
-3.15893e-09
1.23868e-08
-5.21163e-09
1.5934e-08
-7.57773e-09
1.8769e-08
-1.01797e-08
2.09533e-08
-1.29393e-08
2.25594e-08
-1.58062e-08
2.36398e-08
-1.8727e-08
2.42472e-08
-2.16676e-08
2.44176e-08
-2.45868e-08
2.41851e-08
-2.74501e-08
2.35678e-08
-3.02311e-08
2.2571e-08
-3.28934e-08
2.12073e-08
-3.54036e-08
1.9474e-08
-3.77287e-08
1.73741e-08
-3.98354e-08
1.49119e-08
-4.16805e-08
1.20994e-08
-4.32228e-08
8.95666e-09
-4.44261e-08
5.50637e-09
-4.52363e-08
1.79807e-09
-4.56195e-08
-2.12366e-09
-4.55287e-08
-6.17873e-09
-4.49286e-08
-1.02849e-08
-4.37879e-08
-1.43304e-08
-4.20915e-08
-1.81974e-08
-3.98349e-08
-2.1745e-08
-3.70367e-08
-2.48309e-08
-3.37444e-08
-2.73023e-08
-3.00312e-08
-2.90219e-08
-2.59966e-08
-2.98608e-08
-2.17736e-08
-2.97315e-08
-1.75224e-08
-2.85954e-08
-1.34041e-08
-2.64624e-08
-9.6006e-09
-2.34224e-08
-6.27547e-09
-1.96267e-08
-3.57039e-09
-1.52918e-08
-1.58555e-09
-1.06779e-08
-3.91404e-10
-6.0791e-09
-1.82635e-09
-4.35606e-10
3.3881e-09
-1.57723e-09
9.21643e-09
-3.27369e-09
1.40827e-08
-5.40144e-09
1.8058e-08
-7.85494e-09
2.1218e-08
-1.05437e-08
2.36452e-08
-1.34016e-08
2.54171e-08
-1.6369e-08
2.66076e-08
-1.93988e-08
2.72753e-08
-2.2448e-08
2.74675e-08
-2.54814e-08
2.72203e-08
-2.84731e-08
2.65552e-08
-3.1384e-08
2.54838e-08
-3.41922e-08
2.40111e-08
-3.68603e-08
2.21425e-08
-3.9359e-08
1.98706e-08
-4.16527e-08
1.72035e-08
-4.36976e-08
1.41486e-08
-4.546e-08
1.07166e-08
-4.68847e-08
6.9381e-09
-4.79339e-08
2.8448e-09
-4.85473e-08
-1.5069e-09
-4.86847e-08
-6.04523e-09
-4.82893e-08
-1.06775e-08
-4.73266e-08
-1.52947e-08
-4.576e-08
-1.97624e-08
-4.3579e-08
-2.39302e-08
-4.07798e-08
-2.76266e-08
-3.74061e-08
-3.06799e-08
-3.3515e-08
-3.29119e-08
-2.92095e-08
-3.41626e-08
-2.46337e-08
-3.431e-08
-1.99512e-08
-3.32748e-08
-1.53605e-08
-3.10507e-08
-1.10696e-08
-2.77134e-08
-7.27924e-09
-2.34214e-08
-4.1638e-09
-1.84075e-08
-1.85779e-09
-1.29771e-08
-4.62197e-10
-7.48009e-09
-2.28798e-09
-4.46402e-10
3.83507e-09
-1.61736e-09
1.03874e-08
-3.35742e-09
1.58236e-08
-5.53912e-09
2.0242e-08
-8.05367e-09
2.37345e-08
-1.08116e-08
2.64056e-08
-1.37409e-08
2.83492e-08
-1.67858e-08
2.96484e-08
-1.98963e-08
3.03827e-08
-2.30287e-08
3.06015e-08
-2.61529e-08
3.03489e-08
-2.92437e-08
2.96425e-08
-3.22644e-08
2.85089e-08
-3.51913e-08
2.69416e-08
-3.80017e-08
2.49466e-08
-4.06535e-08
2.25243e-08
-4.31198e-08
1.96704e-08
-4.53619e-08
1.63913e-08
-4.73347e-08
1.26928e-08
-4.89947e-08
8.59641e-09
-5.02913e-08
4.13698e-09
-5.11621e-08
-6.3326e-10
-5.15564e-08
-5.649e-09
-5.14123e-08
-1.08177e-08
-5.06784e-08
-1.60279e-08
-4.93058e-08
-2.11349e-08
-4.72623e-08
-2.59739e-08
-4.4536e-08
-3.03547e-08
-4.11439e-08
-3.4074e-08
-3.71335e-08
-3.69187e-08
-3.26066e-08
-3.86907e-08
-2.77016e-08
-3.92156e-08
-2.25992e-08
-3.83752e-08
-1.75222e-08
-3.61284e-08
-1.27153e-08
-3.25237e-08
-8.41148e-09
-2.77196e-08
-4.83984e-09
-2.19793e-08
-2.17763e-09
-1.56429e-08
-5.44869e-10
-9.11181e-09
-2.83229e-09
-4.52231e-10
4.28799e-09
-1.64066e-09
1.15744e-08
-3.40552e-09
1.75917e-08
-5.62309e-09
2.2454e-08
-8.17479e-09
2.6289e-08
-1.09767e-08
2.92059e-08
-1.39545e-08
3.13247e-08
-1.70422e-08
3.27414e-08
-2.02043e-08
3.35406e-08
-2.33886e-08
3.37902e-08
-2.65781e-08
3.35321e-08
-2.97296e-08
3.28011e-08
-3.28335e-08
3.16063e-08
-3.58517e-08
2.99644e-08
-3.87671e-08
2.78634e-08
-4.15484e-08
2.53068e-08
-4.41638e-08
2.22909e-08
-4.65828e-08
1.8806e-08
-4.87574e-08
1.4867e-08
-5.06447e-08
1.04818e-08
-5.21893e-08
5.68296e-09
-5.33317e-08
5.10021e-10
-5.40096e-08
-4.97339e-09
-5.41569e-08
-1.06761e-08
-5.37028e-08
-1.64835e-08
-5.25875e-08
-2.22512e-08
-5.07567e-08
-2.78025e-08
-4.81814e-08
-3.29312e-08
-4.48533e-08
-3.74014e-08
-4.08055e-08
-4.0964e-08
-3.61215e-08
-4.33752e-08
-3.09376e-08
-4.44013e-08
-2.54449e-08
-4.38717e-08
-1.98815e-08
-4.16872e-08
-1.45347e-08
-3.78723e-08
-9.68621e-09
-3.25688e-08
-5.61058e-09
-2.60525e-08
-2.54138e-09
-1.87125e-08
-6.4189e-10
-1.10129e-08
-3.47342e-09
-4.54387e-10
4.74214e-09
-1.64494e-09
1.27687e-08
-3.4241e-09
1.9366e-08
-5.64826e-09
2.46832e-08
-8.2194e-09
2.88554e-08
-1.10349e-08
3.20231e-08
-1.40301e-08
3.43155e-08
-1.71359e-08
3.5849e-08
-2.03118e-08
3.67179e-08
-2.35164e-08
3.69978e-08
-2.67261e-08
3.67386e-08
-2.99116e-08
3.59837e-08
-3.3049e-08
3.47456e-08
-3.61253e-08
3.30324e-08
-3.91083e-08
3.08484e-08
-4.19779e-08
2.81802e-08
-4.4714e-08
2.50207e-08
-4.72732e-08
2.13681e-08
-4.96261e-08
1.7215e-08
-5.17181e-08
1.25777e-08
-5.35054e-08
7.46664e-09
-5.49221e-08
1.92589e-09
-5.58972e-08
-3.99255e-09
-5.63619e-08
-1.02085e-08
-5.62352e-08
-1.66076e-08
-5.54389e-08
-2.30474e-08
-5.39011e-08
-2.93412e-08
-5.15649e-08
-3.52657e-08
-4.84001e-08
-4.05675e-08
-4.44154e-08
-4.4955e-08
-3.96646e-08
-4.81236e-08
-3.42787e-08
-4.97885e-08
-2.84417e-08
-4.97047e-08
-2.242e-08
-4.77097e-08
-1.65273e-08
-4.37675e-08
-1.11016e-08
-3.79916e-08
-6.48017e-09
-3.06716e-08
-2.95745e-09
-2.22356e-08
-7.52882e-10
-1.3219e-08
-4.226e-09
-4.51017e-10
5.19319e-09
-1.63645e-09
1.39513e-08
-3.40693e-09
2.11342e-08
-5.62369e-09
2.69042e-08
-8.18395e-09
3.14151e-08
-1.09891e-08
3.48288e-08
-1.39687e-08
3.72928e-08
-1.70575e-08
3.89389e-08
-2.02125e-08
3.98733e-08
-2.34004e-08
4.01819e-08
-2.6587e-08
3.99302e-08
-2.97588e-08
3.91528e-08
-3.28905e-08
3.78792e-08
-3.59669e-08
3.61134e-08
-3.8974e-08
3.3856e-08
-4.1888e-08
3.10963e-08
-4.46912e-08
2.78225e-08
-4.73541e-08
2.40282e-08
-4.98382e-08
1.97034e-08
-5.21099e-08
1.4844e-08
-5.41104e-08
9.46948e-09
-5.57868e-08
3.59888e-09
-5.70648e-08
-2.71806e-09
-5.78646e-08
-9.4084e-09
-5.81024e-08
-1.63739e-08
-5.76802e-08
-2.34666e-08
-5.65092e-08
-3.05099e-08
-5.45119e-08
-3.72668e-08
-5.16206e-08
-4.34583e-08
-4.781e-08
-4.87586e-08
-4.31134e-08
-5.28209e-08
-3.76278e-08
-5.52767e-08
-3.1532e-08
-5.57987e-08
-2.50997e-08
-5.41423e-08
-1.86729e-08
-5.01897e-08
-1.26569e-08
-4.40116e-08
-7.45242e-09
-3.58779e-08
-3.42988e-09
-2.62576e-08
-8.82181e-10
-1.57664e-08
-5.10792e-09
-4.43517e-10
5.63643e-09
-1.61048e-09
1.51201e-08
-3.35788e-09
2.28779e-08
-5.55152e-09
2.90948e-08
-8.0767e-09
3.39425e-08
-1.08419e-08
3.75971e-08
-1.37743e-08
4.0225e-08
-1.68112e-08
4.19754e-08
-1.99073e-08
4.29702e-08
-2.30285e-08
4.3305e-08
-2.6152e-08
4.30519e-08
-2.92554e-08
4.22575e-08
-3.23282e-08
4.09512e-08
-3.53535e-08
3.9142e-08
-3.83256e-08
3.68242e-08
-4.12274e-08
3.39949e-08
-4.40393e-08
3.06382e-08
-4.67457e-08
2.67342e-08
-4.93165e-08
2.22718e-08
-5.17112e-08
1.72457e-08
-5.3891e-08
1.16504e-08
-5.57963e-08
5.50599e-09
-5.7357e-08
-1.15379e-09
-5.84982e-08
-8.27188e-09
-5.91172e-08
-1.57529e-08
-5.91199e-08
-2.34688e-08
-5.83863e-08
-3.12397e-08
-5.68196e-08
-3.8836e-08
-5.43169e-08
-4.59589e-08
-5.08222e-08
-5.22586e-08
-4.63157e-08
-5.7325e-08
-4.08627e-08
-6.07282e-08
-3.46239e-08
-6.20403e-08
-2.78612e-08
-6.0906e-08
-2.09493e-08
-5.71032e-08
-1.43417e-08
-5.06213e-08
-8.52383e-09
-4.16938e-08
-3.96011e-09
-3.08225e-08
-1.02815e-09
-1.86951e-08
-6.13712e-09
-4.3428e-10
6.06907e-09
-1.57484e-09
1.62673e-08
-3.28482e-09
2.45895e-08
-5.43375e-09
3.12429e-08
-7.90485e-09
3.64135e-08
-1.0605e-08
4.02977e-08
-1.34583e-08
4.30792e-08
-1.6403e-08
4.49213e-08
-1.93994e-08
4.59629e-08
-2.24095e-08
4.6316e-08
-2.5415e-08
4.60563e-08
-2.8396e-08
4.52427e-08
-3.13496e-08
4.39017e-08
-3.42669e-08
4.20531e-08
-3.71353e-08
3.96976e-08
-3.99546e-08
3.68148e-08
-4.27117e-08
3.33962e-08
-4.5395e-08
2.9416e-08
-4.79813e-08
2.4859e-08
-5.04452e-08
1.97057e-08
-5.2746e-08
1.39479e-08
-5.48353e-08
7.5933e-09
-5.66484e-08
6.58114e-10
-5.81082e-08
-6.81038e-09
-5.91165e-08
-1.47408e-08
-5.95665e-08
-2.3018e-08
-5.93313e-08
-3.14755e-08
-5.828e-08
-3.98859e-08
-5.62865e-08
-4.79528e-08
-5.32427e-08
-5.53001e-08
-4.90903e-08
-6.14798e-08
-4.38346e-08
-6.59823e-08
-3.76005e-08
-6.82772e-08
-3.06274e-08
-6.78785e-08
-2.33056e-08
-6.44282e-08
-1.61333e-08
-5.77893e-08
-9.6937e-09
-4.81379e-08
-4.54766e-09
-3.59659e-08
-1.19622e-09
-2.20514e-08
-7.33356e-09
-4.1951e-10
6.48894e-09
-1.53392e-09
1.73747e-08
-3.19577e-09
2.62562e-08
-5.2871e-09
3.33294e-08
-7.68436e-09
3.88102e-08
-1.02918e-08
4.29052e-08
-1.30362e-08
4.58207e-08
-1.58534e-08
4.77392e-08
-1.87013e-08
4.88151e-08
-2.15527e-08
4.9165e-08
-2.43839e-08
4.88886e-08
-2.71892e-08
4.80428e-08
-2.99564e-08
4.66742e-08
-3.26905e-08
4.47874e-08
-3.5393e-08
4.23932e-08
-3.8054e-08
3.94793e-08
-4.06819e-08
3.60224e-08
-4.32651e-08
3.20018e-08
-4.57942e-08
2.73886e-08
-4.82515e-08
2.21619e-08
-5.06017e-08
1.63052e-08
-5.2814e-08
9.80346e-09
-5.48244e-08
2.67112e-09
-5.65683e-08
-5.06972e-09
-5.7949e-08
-1.33625e-08
-5.88545e-08
-2.21119e-08
-5.91502e-08
-3.11768e-08
-5.86886e-08
-4.0348e-08
-5.73083e-08
-4.93324e-08
-5.48623e-08
-5.77476e-08
-5.12318e-08
-6.51128e-08
-4.63621e-08
-7.08502e-08
-4.03165e-08
-7.43245e-08
-3.3296e-08
-7.48984e-08
-2.5676e-08
-7.20436e-08
-1.80064e-08
-6.54594e-08
-1.0948e-08
-5.51955e-08
-5.19807e-09
-4.17147e-08
-1.38389e-09
-2.58603e-08
-8.7177e-09
-4.073e-10
6.89586e-09
-1.4859e-09
1.84593e-08
-3.10463e-09
2.7871e-08
-5.12437e-09
3.53535e-08
-7.43485e-09
4.11183e-08
-9.92823e-09
4.54024e-08
-1.25303e-08
4.84248e-08
-1.5181e-08
5.03914e-08
-1.78414e-08
5.147e-08
-2.04786e-08
5.18017e-08
-2.30823e-08
5.14912e-08
-2.56395e-08
5.06054e-08
-2.81623e-08
4.91915e-08
-3.06429e-08
4.72734e-08
-3.3097e-08
4.48477e-08
-3.55267e-08
4.19108e-08
-3.79422e-08
3.84366e-08
-4.0346e-08
3.44023e-08
-4.27324e-08
2.97762e-08
-4.50974e-08
2.45263e-08
-4.74235e-08
1.86278e-08
-4.96771e-08
1.2061e-08
-5.18194e-08
4.81459e-09
-5.37889e-08
-3.10202e-09
-5.54968e-08
-1.16508e-08
-5.68418e-08
-2.07724e-08
-5.76814e-08
-3.03385e-08
-5.78556e-08
-4.01727e-08
-5.71775e-08
-5.00061e-08
-5.54624e-08
-5.94676e-08
-5.25253e-08
-6.80492e-08
-4.8245e-08
-7.51275e-08
-4.26023e-08
-7.99663e-08
-3.57339e-08
-8.17661e-08
-2.79819e-08
-7.9795e-08
-1.99128e-08
-7.35294e-08
-1.22722e-08
-6.28354e-08
-5.9024e-09
-4.80865e-08
-1.595e-09
-3.01687e-08
-1.03123e-08
-3.96437e-10
7.29183e-09
-1.45115e-09
1.95093e-08
-3.01865e-09
2.94462e-08
-4.97258e-09
3.73038e-08
-7.18203e-09
4.33251e-08
-9.54419e-09
4.77626e-08
-1.19754e-08
5.08601e-08
-1.44254e-08
5.2838e-08
-1.68476e-08
5.38944e-08
-1.92173e-08
5.41781e-08
-2.15347e-08
5.38021e-08
-2.37838e-08
5.28604e-08
-2.59853e-08
5.13903e-08
-2.81451e-08
4.94285e-08
-3.02733e-08
4.69797e-08
-3.23915e-08
4.40298e-08
-3.45111e-08
4.05571e-08
-3.66472e-08
3.65383e-08
-3.88062e-08
3.19341e-08
-4.09908e-08
2.67114e-08
-4.31997e-08
2.08335e-08
-4.54131e-08
1.42726e-08
-4.76028e-08
7.00382e-09
-4.97187e-08
-9.81964e-10
-5.16986e-08
-9.67633e-09
-5.34309e-08
-1.90332e-08
-5.47958e-08
-2.89747e-08
-5.56222e-08
-3.93465e-08
-5.57101e-08
-4.99205e-08
-5.48304e-08
-6.03459e-08
-5.27501e-08
-7.01278e-08
-4.92707e-08
-7.86104e-08
-4.42677e-08
-8.49633e-08
-3.77926e-08
-8.82448e-08
-3.0116e-08
-8.74748e-08
-2.17943e-08
-8.18552e-08
-1.36436e-08
-7.09846e-08
-6.65884e-09
-5.50732e-08
-1.82747e-09
-3.5e-08
-1.21394e-08
-3.91623e-10
7.68359e-09
-1.42802e-09
2.05493e-08
-2.96852e-09
3.09804e-08
-4.85727e-09
3.91936e-08
-6.96246e-09
4.54334e-08
-9.17644e-09
4.99768e-08
-1.14157e-08
5.30991e-08
-1.36212e-08
5.50457e-08
-1.57617e-08
5.6032e-08
-1.78166e-08
5.6228e-08
-1.9777e-08
5.57676e-08
-2.16595e-08
5.47375e-08
-2.3468e-08
5.32032e-08
-2.52271e-08
5.11879e-08
-2.69574e-08
4.87081e-08
-2.86848e-08
4.57517e-08
-3.04243e-08
4.23029e-08
-3.22093e-08
3.8322e-08
-3.40511e-08
3.37779e-08
-3.59673e-08
2.86288e-08
-3.79641e-08
2.28344e-08
-4.00414e-08
1.63497e-08
-4.21848e-08
9.14632e-09
-4.43626e-08
1.19486e-09
-4.65225e-08
-7.51753e-09
-4.85806e-08
-1.69784e-08
-5.04164e-08
-2.71347e-08
-5.18784e-08
-3.78889e-08
-5.27533e-08
-4.90454e-08
-5.2788e-08
-6.03074e-08
-5.17045e-08
-7.12118e-08
-4.92194e-08
-8.10966e-08
-4.5113e-08
-8.90752e-08
-3.92985e-08
-9.40534e-08
-3.19527e-08
-9.48185e-08
-2.35738e-08
-9.02293e-08
-1.50293e-08
-7.95301e-08
-7.45926e-09
-6.26461e-08
-2.08181e-09
-4.03746e-08
-1.42216e-08
-3.98081e-10
8.08112e-09
-1.44423e-09
2.15921e-08
-2.9701e-09
3.25115e-08
-4.81452e-09
4.10335e-08
-6.82281e-09
4.74397e-08
-8.87718e-09
5.20324e-08
-1.0898e-08
5.51175e-08
-1.28251e-08
5.69744e-08
-1.4636e-08
5.78397e-08
-1.63123e-08
5.79072e-08
-1.78634e-08
5.73165e-08
-1.93037e-08
5.61777e-08
-2.06554e-08
5.45496e-08
-2.19404e-08
5.2478e-08
-2.31949e-08
4.99651e-08
-2.44484e-08
4.70071e-08
-2.57347e-08
4.35876e-08
-2.70832e-08
3.96685e-08
-2.85227e-08
3.52182e-08
-3.00791e-08
3.01866e-08
-3.17774e-08
2.4526e-08
-3.36198e-08
1.81965e-08
-3.56178e-08
1.1145e-08
-3.77563e-08
3.3298e-09
-4.00007e-08
-5.2759e-09
-4.22855e-08
-1.46886e-08
-4.45217e-08
-2.49003e-08
-4.65578e-08
-3.58468e-08
-4.82045e-08
-4.7404e-08
-4.91902e-08
-5.93213e-08
-4.92038e-08
-7.11992e-08
-4.78902e-08
-8.24086e-08
-4.49179e-08
-9.205e-08
-4.00632e-08
-9.89086e-08
-3.33457e-08
-1.01535e-07
-2.51685e-08
-9.84097e-08
-1.63884e-08
-8.83086e-08
-8.29193e-09
-7.07429e-08
-2.36023e-09
-4.63047e-08
-1.65824e-08
-4.22107e-10
8.50226e-09
-1.50881e-09
2.2686e-08
-3.06894e-09
3.4069e-08
-4.89105e-09
4.28599e-08
-6.81378e-09
4.93587e-08
-8.70451e-09
5.3923e-08
-1.04816e-08
5.68918e-08
-1.2092e-08
5.85886e-08
-1.3519e-08
5.92699e-08
-1.47642e-08
5.91509e-08
-1.58351e-08
5.83941e-08
-1.67704e-08
5.7106e-08
-1.75842e-08
5.53703e-08
-1.83299e-08
5.32181e-08
-1.90358e-08
5.06689e-08
-1.97412e-08
4.77164e-08
-2.04973e-08
4.43382e-08
-2.13285e-08
4.05062e-08
-2.22866e-08
3.61742e-08
-2.34029e-08
3.12996e-08
-2.47047e-08
2.58314e-08
-2.62231e-08
1.97159e-08
-2.79788e-08
1.28956e-08
-2.9969e-08
5.32421e-09
-3.21873e-08
-3.0557e-09
-3.45967e-08
-1.22799e-08
-3.71236e-08
-2.23727e-08
-3.96556e-08
-3.33195e-08
-4.20094e-08
-4.50495e-08
-4.39346e-08
-5.73946e-08
-4.50969e-08
-7.00334e-08
-4.50946e-08
-8.24144e-08
-4.34814e-08
-9.36592e-08
-3.98854e-08
-1.02505e-07
-3.41353e-08
-1.07284e-07
-2.64662e-08
-1.06083e-07
-1.76705e-08
-9.71029e-08
-9.14713e-09
-7.92704e-08
-2.66321e-09
-5.27896e-08
-1.92458e-08
-4.70819e-10
8.97428e-09
-1.65942e-09
2.38696e-08
-3.30284e-09
3.57115e-08
-5.15041e-09
4.47072e-08
-7.00125e-09
5.12132e-08
-8.72454e-09
5.56428e-08
-1.02266e-08
5.84e-08
-1.14781e-08
5.98371e-08
-1.2468e-08
6.02588e-08
-1.32127e-08
5.98957e-08
-1.3741e-08
5.89216e-08
-1.40901e-08
5.74572e-08
-1.43037e-08
5.55863e-08
-1.44316e-08
5.33433e-08
-1.4517e-08
5.0752e-08
-1.46067e-08
4.78076e-08
-1.47546e-08
4.44828e-08
-1.50036e-08
4.07534e-08
-1.54027e-08
3.65707e-08
-1.59972e-08
3.18927e-08
-1.68246e-08
2.66619e-08
-1.79309e-08
2.08218e-08
-1.93406e-08
1.4312e-08
-2.10842e-08
7.06532e-09
-2.31655e-08
-9.74471e-10
-2.55798e-08
-9.86966e-09
-2.82791e-08
-1.96705e-08
-3.1187e-08
-3.0412e-08
-3.41548e-08
-4.20777e-08
-3.696e-08
-5.45898e-08
-3.92763e-08
-6.7719e-08
-4.06661e-08
-8.1024e-08
-4.06054e-08
-9.37197e-08
-3.85584e-08
-1.04551e-07
-3.41409e-08
-1.11706e-07
-2.73429e-08
-1.12879e-07
-1.88187e-08
-1.05625e-07
-1.0011e-08
-8.80756e-08
-2.99275e-09
-5.9805e-08
-2.22389e-08
-5.6279e-10
9.538e-09
-1.92698e-09
2.52327e-08
-3.73351e-09
3.75185e-08
-5.65836e-09
4.66356e-08
-7.46339e-09
5.30205e-08
-9.00362e-09
5.71806e-08
-1.0203e-08
5.9594e-08
-1.10337e-08
6.06724e-08
-1.15198e-08
6.07407e-08
-1.16907e-08
6.00641e-08
-1.15958e-08
5.88245e-08
-1.12847e-08
5.71512e-08
-1.08235e-08
5.512e-08
-1.02597e-08
5.27807e-08
-9.65174e-09
5.01478e-08
-9.05917e-09
4.72136e-08
-8.53022e-09
4.3961e-08
-8.13008e-09
4.03497e-08
-7.8994e-09
3.63453e-08
-7.9024e-09
3.18935e-08
-8.18052e-09
2.69408e-08
-8.78984e-09
2.14288e-08
-9.77365e-09
1.52916e-08
-1.1167e-08
8.46278e-09
-1.30033e-08
8.6521e-10
-1.52999e-08
-7.57143e-09
-1.80482e-08
-1.69263e-08
-2.11969e-08
-2.72576e-08
-2.46587e-08
-3.86227e-08
-2.82396e-08
-5.10056e-08
-3.16547e-08
-6.43034e-08
-3.4469e-08
-7.82112e-08
-3.60995e-08
-9.20879e-08
-3.58724e-08
-1.04779e-07
-3.31595e-08
-1.14419e-07
-2.76521e-08
-1.18378e-07
-1.97599e-08
-1.13524e-07
-1.08703e-08
-9.69648e-08
-3.35523e-09
-6.73207e-08
-2.55943e-08
-7.17393e-10
1.02551e-08
-2.36669e-09
2.68804e-08
-4.43474e-09
3.9591e-08
-6.50453e-09
4.86976e-08
-8.28027e-09
5.47984e-08
-9.61248e-09
5.85169e-08
-1.04473e-08
6.04306e-08
-1.07902e-08
6.10122e-08
-1.06811e-08
6.06343e-08
-1.01878e-08
5.9571e-08
-9.37705e-09
5.80172e-08
-8.32589e-09
5.60969e-08
-7.10094e-09
5.38944e-08
-5.77008e-09
5.14499e-08
-4.40071e-09
4.87774e-08
-3.05264e-09
4.58674e-08
-1.79092e-09
4.2696e-08
-6.72455e-10
3.923e-08