/*--------------------------------*- C++ -*----------------------------------*\
  =========                 |
  \\      /  F ield         | OpenFOAM: The Open Source CFD Toolbox
   \\    /   O peration     | Website:  https://openfoam.org
    \\  /    A nd           | Version:  8
     \\/     M anipulation  |
\*---------------------------------------------------------------------------*/
FoamFile
{
    version     2.0;
    format      ascii;
    class       volScalarField;
    location    "32";
    object      pp;
}
// * * * * * * * * * * * * * * * * * * * * * * * * * * * * * * * * * * * * * //

dimensions      [0 2 -2 0 0 0 0];

internalField   nonuniform List<scalar> 
1600
(
9.98396e-12
-1.45428e-08
-4.31137e-08
-8.00717e-08
-1.1883e-07
-1.54894e-07
-1.85372e-07
-2.08449e-07
-2.23038e-07
-2.28523e-07
-2.24568e-07
-2.10996e-07
-1.87733e-07
-1.54799e-07
-1.1233e-07
-6.06296e-08
-2.24752e-10
6.80734e-08
1.43119e-07
2.234e-07
3.07027e-07
3.9176e-07
4.75065e-07
5.54212e-07
6.26405e-07
6.88941e-07
7.3939e-07
7.75778e-07
7.96761e-07
8.01776e-07
7.91141e-07
7.66116e-07
7.289e-07
6.82581e-07
6.31039e-07
5.78807e-07
5.3093e-07
4.92911e-07
4.70231e-07
4.63421e-07
1.44806e-08
-2.83174e-10
-2.52241e-08
-5.62923e-08
-8.85813e-08
-1.18625e-07
-1.44051e-07
-1.6327e-07
-1.75263e-07
-1.79405e-07
-1.75317e-07
-1.62772e-07
-1.41652e-07
-1.11938e-07
-7.3729e-08
-2.72867e-08
2.69206e-08
8.81664e-08
1.55423e-07
2.27336e-07
3.02214e-07
3.78057e-07
4.52604e-07
5.23423e-07
5.8803e-07
6.4403e-07
6.8928e-07
7.22055e-07
7.41201e-07
7.46269e-07
7.376e-07
7.16371e-07
6.84577e-07
6.44971e-07
6.00953e-07
5.5643e-07
5.15664e-07
4.83167e-07
4.63259e-07
4.56659e-07
4.35031e-08
2.4276e-08
-1.22286e-09
-2.95722e-08
-5.76792e-08
-8.33059e-08
-1.04773e-07
-1.20865e-07
-1.3076e-07
-1.3392e-07
-1.29986e-07
-1.18715e-07
-9.99514e-08
-7.36237e-08
-3.977e-08
1.4265e-09
4.95919e-08
1.04116e-07
1.64112e-07
2.28391e-07
2.95453e-07
3.63509e-07
4.30522e-07
4.94294e-07
5.52565e-07
6.03158e-07
6.44119e-07
6.73881e-07
6.91403e-07
6.96292e-07
6.88883e-07
6.70265e-07
6.42257e-07
6.07329e-07
5.68478e-07
5.29072e-07
4.92675e-07
4.62897e-07
4.43095e-07
4.34309e-07
8.19349e-08
5.5329e-08
2.56301e-08
-3.43957e-09
-3.02679e-08
-5.37888e-08
-7.30571e-08
-8.73151e-08
-9.60317e-08
-9.88411e-08
-9.54708e-08
-8.56999e-08
-6.93473e-08
-4.62851e-08
-1.64677e-08
2.00264e-08
6.29471e-08
1.11824e-07
1.65923e-07
2.24215e-07
2.85367e-07
3.47748e-07
4.09474e-07
4.68479e-07
5.2262e-07
5.69806e-07
6.08144e-07
6.361e-07
6.52636e-07
6.57334e-07
6.50472e-07
6.33044e-07
6.06722e-07
5.73769e-07
5.36899e-07
4.99109e-07
4.63466e-07
4.32903e-07
4.10037e-07
3.96395e-07
1.23131e-07
8.77381e-08
5.18593e-08
1.99313e-08
-7.61248e-09
-3.07599e-08
-4.92669e-08
-6.28439e-08
-7.12819e-08
-7.4424e-08
-7.21127e-08
-6.41661e-08
-5.03834e-08
-3.05717e-08
-4.58529e-09
2.76235e-08
6.59494e-08
1.10078e-07
1.59435e-07
2.13148e-07
2.70021e-07
3.28547e-07
3.86931e-07
4.43164e-07
4.95125e-07
5.40704e-07
5.77964e-07
6.05296e-07
6.21573e-07
6.26278e-07
6.19581e-07
6.02366e-07
5.76182e-07
5.43147e-07
5.05801e-07
4.66917e-07
4.29243e-07
3.95231e-07
3.66987e-07
3.46759e-07
1.61834e-07
1.17172e-07
7.42138e-08
3.82573e-08
8.76911e-09
-1.51812e-08
-3.3997e-08
-4.78338e-08
-5.67988e-08
-6.09462e-08
-6.02366e-08
-5.45271e-08
-4.35915e-08
-2.71599e-08
-4.97087e-09
2.31681e-08
5.73148e-08
9.73261e-08
1.42796e-07
1.93004e-07
2.46887e-07
3.03026e-07
3.59679e-07
4.14838e-07
4.66329e-07
5.11949e-07
5.49622e-07
5.77576e-07
5.94507e-07
5.99722e-07
5.93232e-07
5.75778e-07
5.48791e-07
5.14287e-07
4.74715e-07
4.32748e-07
3.90969e-07
3.51529e-07
3.16261e-07
2.88317e-07
1.93753e-07
1.39844e-07
8.95115e-08
4.89333e-08
1.6751e-08
-8.8151e-09
-2.87599e-08
-4.36476e-08
-5.38769e-08
-5.96962e-08
-6.11712e-08
-5.81854e-08
-5.04736e-08
-3.76739e-08
-1.93914e-08
4.72983e-09
3.49292e-08
7.1251e-08
1.1347e-07
1.61026e-07
2.12981e-07
2.67998e-07
3.24359e-07
3.80015e-07
4.32691e-07
4.80016e-07
5.197e-07
5.49718e-07
5.68501e-07
5.75096e-07
5.69282e-07
5.51612e-07
5.23384e-07
4.86536e-07
4.43492e-07
3.96934e-07
3.49418e-07
3.02974e-07
2.59401e-07
2.22883e-07
2.15177e-07
1.52328e-07
9.46758e-08
4.92363e-08
1.39164e-08
-1.38394e-08
-3.55651e-08
-5.21932e-08
-6.43816e-08
-7.25457e-08
-7.68335e-08
-7.71347e-08
-7.31263e-08
-6.43351e-08
-5.02131e-08
-3.02208e-08
-3.91598e-09
2.89538e-08
6.83623e-08
1.13926e-07
1.64842e-07
2.19855e-07
2.77259e-07
3.34945e-07
3.90489e-07
4.413e-07
4.84794e-07
5.18605e-07
5.40797e-07
5.50057e-07
5.45844e-07
5.28453e-07
4.99012e-07
4.59387e-07
4.12028e-07
3.59722e-07
3.05137e-07
2.50349e-07
1.97339e-07
1.51456e-07
2.22805e-07
1.51501e-07
8.67995e-08
3.64901e-08
-2.20406e-09
-3.25568e-08
-5.65958e-08
-7.55834e-08
-9.04017e-08
-1.01602e-07
-1.09389e-07
-1.13632e-07
-1.13929e-07
-1.09673e-07
-1.00142e-07
-8.4589e-08
-6.23435e-08
-3.29182e-08
3.888e-09
4.78939e-08
9.84568e-08
1.5442e-07
2.141e-07
2.75314e-07
3.35469e-07
3.91698e-07
4.41053e-07
4.80729e-07
5.08313e-07
5.22011e-07
5.20843e-07
5.0475e-07
4.74624e-07
4.32239e-07
3.80109e-07
3.21212e-07
2.5845e-07
1.94107e-07
1.30543e-07
7.44225e-08
2.13656e-07
1.34499e-07
6.31615e-08
8.12591e-09
-3.40412e-08
-6.72868e-08
-9.40933e-08
-1.16018e-07
-1.34134e-07
-1.49099e-07
-1.61143e-07
-1.70095e-07
-1.75446e-07
-1.76437e-07
-1.72143e-07
-1.61585e-07
-1.43833e-07
-1.18131e-07
-8.4011e-08
-4.14107e-08
9.22856e-09
6.68869e-08
1.29929e-07
1.96113e-07
2.62666e-07
3.26409e-07
3.83959e-07
4.31973e-07
4.67429e-07
4.87908e-07
4.91839e-07
4.78674e-07
4.48966e-07
4.04348e-07
3.47406e-07
2.81379e-07
2.09526e-07
1.34483e-07
5.91616e-08
-8.25499e-09
1.85008e-07
9.86998e-08
2.12359e-08
-3.82842e-08
-8.39382e-08
-1.20308e-07
-1.50295e-07
-1.75721e-07
-1.97822e-07
-2.17334e-07
-2.34489e-07
-2.49048e-07
-2.60378e-07
-2.67539e-07
-2.69383e-07
-2.64666e-07
-2.52166e-07
-2.30812e-07
-1.99821e-07
-1.58828e-07
-1.08012e-07
-4.81965e-08
1.9085e-08
9.15712e-08
1.66319e-07
2.3982e-07
3.08195e-07
3.67458e-07
4.13836e-07
4.44104e-07
4.5591e-07
4.48032e-07
4.20533e-07
3.74808e-07
3.13492e-07
2.40139e-07
1.58467e-07
7.16009e-08
-1.68232e-08
-9.68465e-08
1.34401e-07
4.1722e-08
-4.12855e-08
-1.04987e-07
-1.54095e-07
-1.93789e-07
-2.27359e-07
-2.56863e-07
-2.83677e-07
-3.0859e-07
-3.31816e-07
-3.53032e-07
-3.71457e-07
-3.85954e-07
-3.95125e-07
-3.9743e-07
-3.91314e-07
-3.75342e-07
-3.4835e-07
-3.09599e-07
-2.58923e-07
-1.96862e-07
-1.24765e-07
-4.48438e-08
3.98323e-08
1.2543e-07
2.07533e-07
2.81411e-07
3.42379e-07
3.86201e-07
4.09506e-07
4.10149e-07
3.87486e-07
3.42518e-07
2.77857e-07
1.97388e-07
1.05388e-07
5.60123e-09
-9.745e-08
-1.91678e-07
5.96453e-08
-3.85442e-08
-1.26457e-07
-1.93998e-07
-2.46506e-07
-2.89718e-07
-3.2728e-07
-3.61466e-07
-3.93768e-07
-4.25018e-07
-4.55394e-07
-4.84472e-07
-5.11316e-07
-5.3457e-07
-5.52566e-07
-5.63439e-07
-5.65256e-07
-5.56162e-07
-5.34539e-07
-4.99183e-07
-4.4948e-07
-3.85571e-07
-3.08505e-07
-2.20339e-07
-1.24183e-07
-2.41538e-08
7.47787e-08
1.67058e-07
2.46926e-07
3.08901e-07
3.48296e-07
3.61732e-07
3.47554e-07
3.06124e-07
2.39892e-07
1.5305e-07
5.05032e-08
-6.32531e-08
-1.82625e-07
-2.92959e-07
-4.11283e-08
-1.439e-07
-2.36032e-07
-3.07046e-07
-3.6289e-07
-4.09816e-07
-4.51794e-07
-4.91292e-07
-5.2991e-07
-5.68505e-07
-6.07216e-07
-6.45514e-07
-6.82298e-07
-7.15985e-07
-7.4462e-07
-7.65984e-07
-7.77725e-07
-7.77505e-07
-7.63177e-07
-7.32966e-07
-6.85685e-07
-6.20936e-07
-5.39316e-07
-4.42576e-07
-3.33738e-07
-2.17106e-07
-9.81747e-08
1.6622e-08
1.20304e-07
2.05891e-07
2.67044e-07
2.98744e-07
2.97924e-07
2.63955e-07
1.9888e-07
1.07107e-07
-5.79065e-09
-1.3444e-07
-2.7198e-07
-4.00616e-07
-1.69429e-07
-2.75792e-07
-3.7142e-07
-4.4552e-07
-5.04629e-07
-5.55463e-07
-6.02285e-07
-6.4774e-07
-6.93525e-07
-7.40525e-07
-7.88839e-07
-8.37835e-07
-8.86248e-07
-9.3227e-07
-9.73647e-07
-1.00778e-06
-1.03187e-06
-1.04304e-06
-1.03852e-06
-1.01585e-06
-9.73142e-07
-9.0929e-07
-8.24249e-07
-7.19273e-07
-5.97103e-07
-4.6208e-07
-3.20122e-07
-1.78538e-07
-4.5643e-08
6.98379e-08
1.59534e-07
2.1631e-07
2.35156e-07
2.13961e-07
1.53984e-07
5.96481e-08
-6.28194e-08
-2.07056e-07
-3.647e-07
-5.14115e-07
-3.26345e-07
-4.35264e-07
-5.33637e-07
-6.10419e-07
-6.72705e-07
-7.27624e-07
-7.79695e-07
-8.3173e-07
-8.85522e-07
-9.41989e-07
-1.0012e-06
-1.06243e-06
-1.12428e-06
-1.1847e-06
-1.24115e-06
-1.29064e-06
-1.3299e-06
-1.35543e-06
-1.3638e-06
-1.35174e-06
-1.31651e-06
-1.2561e-06
-1.16963e-06
-1.05761e-06
-9.22244e-07
-7.67685e-07
-6.00097e-07
-4.27574e-07
-2.59808e-07
-1.07478e-07
1.86235e-08
1.08696e-07
1.55131e-07
1.53673e-07
1.0424e-07
1.0917e-08
-1.19528e-07
-2.79655e-07
-4.5935e-07
-6.32254e-07
-5.12504e-07
-6.22922e-07
-7.23271e-07
-8.02311e-07
-8.67654e-07
-9.26781e-07
-9.8444e-07
-1.0436e-06
-1.10616e-06
-1.17308e-06
-1.24443e-06
-1.31942e-06
-1.3965e-06
-1.47345e-06
-1.54743e-06
-1.61508e-06
-1.67259e-06
-1.71587e-06
-1.7407e-06
-1.74293e-06
-1.71881e-06
-1.66526e-06
-1.5803e-06
-1.46342e-06
-1.31601e-06
-1.14171e-06
-9.46655e-07
-7.39522e-07
-5.31318e-07
-3.34801e-07
-1.63535e-07
-3.05786e-08
5.30909e-08
8.02145e-08
4.85856e-08
-3.86172e-08
-1.74348e-07
-3.50075e-07
-5.53653e-07
-7.52937e-07
-7.28036e-07
-8.38906e-07
-9.40462e-07
-1.02131e-06
-1.08953e-06
-1.15289e-06
-1.21634e-06
-1.28302e-06
-1.35494e-06
-1.43314e-06
-1.5177e-06
-1.60781e-06
-1.70182e-06
-1.79735e-06
-1.8913e-06
-1.97993e-06
-2.05893e-06
-2.12356e-06
-2.16878e-06
-2.18946e-06
-2.18072e-06
-2.13823e-06
-2.05868e-06
-1.94024e-06
-1.78313e-06
-1.5901e-06
-1.36688e-06
-1.12239e-06
-8.68734e-07
-6.20748e-07
-3.95019e-07
-2.08429e-07
-7.61858e-08
-9.59925e-09
-1.40602e-08
-8.81492e-08
-2.2504e-07
-4.15215e-07
-6.44232e-07
-8.72881e-07
-9.72557e-07
-1.08289e-06
-1.1849e-06
-1.26707e-06
-1.33788e-06
-1.40534e-06
-1.47458e-06
-1.54891e-06
-1.6305e-06
-1.72049e-06
-1.81904e-06
-1.92534e-06
-2.03771e-06
-2.15362e-06
-2.26977e-06
-2.38205e-06
-2.4857e-06
-2.5753e-06
-2.64496e-06
-2.68854e-06
-2.6999e-06
-2.67331e-06
-2.60391e-06
-2.48828e-06
-2.32509e-06
-2.11577e-06
-1.86514e-06
-1.58192e-06
-1.27893e-06
-9.72832e-07
-6.83344e-07
-4.31626e-07
-2.3799e-07
-1.19009e-07
-8.46122e-08
-1.36358e-07
-2.68467e-07
-4.70762e-07
-7.2629e-07
-9.87269e-07
-1.24518e-06
-1.35409e-06
-1.45587e-06
-1.53882e-06
-1.61179e-06
-1.68297e-06
-1.75768e-06
-1.83942e-06
-1.93056e-06
-2.03241e-06
-2.14525e-06
-2.26835e-06
-2.40003e-06
-2.53769e-06
-2.67784e-06
-2.81609e-06
-2.9472e-06
-3.06513e-06
-3.16314e-06
-3.23403e-06
-3.27036e-06
-3.26488e-06
-3.21101e-06
-3.10346e-06
-2.93901e-06
-2.71731e-06
-2.44174e-06
-2.12021e-06
-1.76566e-06
-1.39615e-06
-1.03432e-06
-7.05877e-07
-4.37005e-07
-2.50838e-07
-1.63481e-07
-1.81118e-07
-3.00297e-07
-5.10836e-07
-7.93207e-07
-1.08932e-06
-1.54458e-06
-1.65136e-06
-1.75228e-06
-1.83542e-06
-1.90991e-06
-1.9841e-06
-2.0635e-06
-2.15188e-06
-2.25187e-06
-2.36504e-06
-2.49185e-06
-2.63171e-06
-2.78301e-06
-2.94314e-06
-3.10847e-06
-3.27437e-06
-3.43518e-06
-3.58424e-06
-3.71403e-06
-3.81627e-06
-3.88222e-06
-3.90304e-06
-3.87031e-06
-3.77669e-06
-3.61675e-06
-3.38793e-06
-3.09163e-06
-2.73422e-06
-2.32802e-06
-1.89179e-06
-1.45059e-06
-1.03454e-06
-6.76278e-07
-4.06726e-07
-2.5002e-07
-2.19062e-07
-3.14578e-07
-5.27543e-07
-8.36044e-07
-1.16975e-06
-1.86905e-06
-1.97325e-06
-2.07282e-06
-2.15546e-06
-2.23054e-06
-2.30656e-06
-2.3893e-06
-2.48287e-06
-2.59028e-06
-2.71344e-06
-2.85309e-06
-3.00885e-06
-3.17926e-06
-3.36175e-06
-3.5526e-06
-3.74699e-06
-3.93888e-06
-4.12108e-06
-4.28527e-06
-4.42217e-06
-4.52175e-06
-4.57358e-06
-4.56737e-06
-4.4936e-06
-4.34442e-06
-4.11473e-06
-3.80337e-06
-3.41452e-06
-2.95898e-06
-2.45524e-06
-1.92991e-06
-1.41706e-06
-9.55864e-07
-5.86057e-07
-3.41706e-07
-2.44945e-07
-3.03184e-07
-5.10399e-07
-8.42929e-07
-1.21613e-06
-2.21665e-06
-2.31819e-06
-2.4161e-06
-2.49744e-06
-2.57178e-06
-2.64786e-06
-2.73182e-06
-2.82826e-06
-2.94072e-06
-3.07158e-06
-3.22198e-06
-3.39184e-06
-3.5799e-06
-3.78366e-06
-3.99941e-06
-4.22213e-06
-4.44546e-06
-4.66172e-06
-4.86186e-06
-5.03566e-06
-5.17184e-06
-5.25846e-06
-5.28338e-06
-5.23487e-06
-5.10258e-06
-4.87859e-06
-4.55882e-06
-4.14456e-06
-3.64421e-06
-3.07488e-06
-2.46355e-06
-1.84724e-06
-1.27122e-06
-7.84581e-07
-4.33065e-07
-2.50805e-07
-2.55095e-07
-4.4563e-07
-7.98319e-07
-1.21212e-06
-2.58542e-06
-2.6847e-06
-2.78084e-06
-2.85991e-06
-2.93168e-06
-3.00524e-06
-3.08733e-06
-3.18327e-06
-3.29732e-06
-3.43251e-06
-3.5905e-06
-3.7716e-06
-3.97479e-06
-4.19773e-06
-4.43668e-06
-4.68649e-06
-4.94051e-06
-5.19056e-06
-5.42696e-06
-5.63856e-06
-5.81297e-06
-5.93681e-06
-5.99615e-06
-5.97719e-06
-5.86703e-06
-5.65489e-06
-5.33346e-06
-4.90068e-06
-4.36172e-06
-3.73117e-06
-3.03498e-06
-2.31166e-06
-1.61152e-06
-9.92882e-07
-5.14382e-07
-2.2494e-07
-1.55537e-07
-3.15338e-07
-6.82122e-07
-1.13655e-06
-2.97363e-06
-3.07168e-06
-3.16622e-06
-3.24176e-06
-3.30841e-06
-3.37588e-06
-3.45183e-06
-3.54263e-06
-3.65354e-06
-3.78847e-06
-3.94973e-06
-4.13812e-06
-4.35292e-06
-4.59192e-06
-4.85139e-06
-5.12601e-06
-5.40883e-06
-5.69121e-06
-5.96284e-06
-6.21174e-06
-6.42445e-06
-6.58628e-06
-6.68168e-06
-6.69483e-06
-6.61048e-06
-6.415e-06
-6.09779e-06
-5.65315e-06
-5.08242e-06
-4.39664e-06
-3.6193e-06
-2.78862e-06
-1.95831e-06
-1.19486e-06
-5.70309e-07
-1.50732e-07
1.50263e-08
-9.65316e-08
-4.68672e-07
-9.62312e-07
-3.38015e-06
-3.47881e-06
-3.57221e-06
-3.64255e-06
-3.70052e-06
-3.757e-06
-3.82105e-06
-3.90059e-06
-4.00225e-06
-4.13104e-06
-4.29013e-06
-4.48085e-06
-4.7028e-06
-4.95387e-06
-5.23028e-06
-5.52652e-06
-5.8353e-06
-6.14748e-06
-6.45211e-06
-6.73641e-06
-6.98595e-06
-7.18479e-06
-7.3159e-06
-7.36166e-06
-7.30461e-06
-7.12845e-06
-6.81943e-06
-6.36813e-06
-5.77174e-06
-5.03703e-06
-4.1837e-06
-3.24791e-06
-2.28455e-06
-1.36649e-06
-5.7849e-07
-5.37059e-09
2.82033e-07
2.39999e-07
-1.25512e-07
-6.55091e-07
-3.80504e-06
-3.90715e-06
-4.00011e-06
-4.06284e-06
-4.10718e-06
-4.146e-06
-4.1906e-06
-4.25104e-06
-4.33583e-06
-4.45137e-06
-4.60179e-06
-4.78902e-06
-5.01292e-06
-5.27143e-06
-5.56062e-06
-5.87466e-06
-6.20582e-06
-6.54443e-06
-6.87884e-06
-7.19548e-06
-7.47892e-06
-7.71209e-06
-7.87661e-06
-7.95319e-06
-7.92239e-06
-7.76549e-06
-7.46581e-06
-7.01036e-06
-6.3922e-06
-5.61343e-06
-4.68909e-06
-3.65158e-06
-2.55467e-06
-1.47503e-06
-5.08331e-07
2.4154e-07
6.78206e-07
7.31086e-07
3.88121e-07
-1.71722e-07
-4.25035e-06
-4.35991e-06
-4.45323e-06
-4.50468e-06
-4.52839e-06
-4.54058e-06
-4.55595e-06
-4.58755e-06
-4.64629e-06
-4.74027e-06
-4.87469e-06
-5.05201e-06
-5.27228e-06
-5.5333e-06
-5.83082e-06
-6.15855e-06
-6.50818e-06
-6.86936e-06
-7.22966e-06
-7.57466e-06
-7.88795e-06
-8.15134e-06
-8.34513e-06
-8.44854e-06
-8.44031e-06
-8.29956e-06
-8.00694e-06
-7.54624e-06
-6.9066e-06
-6.08548e-06
-5.0928e-06
-3.956e-06
-2.7256e-06
-1.47905e-06
-3.20108e-07
6.29443e-07
1.24526e-06
1.42302e-06
1.12333e-06
5.4197e-07
-4.72146e-06
-4.84377e-06
-4.93787e-06
-4.97221e-06
-4.96525e-06
-4.93876e-06
-4.91242e-06
-4.90332e-06
-4.92533e-06
-4.98849e-06
-5.09905e-06
-5.25986e-06
-5.4709e-06
-5.7296e-06
-6.03115e-06
-6.36856e-06
-6.73275e-06
-7.1125e-06
-7.49452e-06
-7.8634e-06
-8.20169e-06
-8.49005e-06
-8.70752e-06
-8.83184e-06
-8.84007e-06
-8.70933e-06
-8.41791e-06
-7.9467e-06
-7.28129e-06
-6.41483e-06
-5.35212e-06
-4.11501e-06
-2.74903e-06
-1.32954e-06
3.52189e-08
1.20812e-06
2.03591e-06
2.374e-06
2.14439e-06
1.55427e-06
-5.22937e-06
-5.37078e-06
-5.46472e-06
-5.47237e-06
-5.42021e-06
-5.33886e-06
-5.25508e-06
-5.19116e-06
-5.16443e-06
-5.1869e-06
-5.26566e-06
-5.40362e-06
-5.60031e-06
-5.85243e-06
-6.15426e-06
-6.49783e-06
-6.87302e-06
-7.26759e-06
-7.66718e-06
-8.05527e-06
-8.41329e-06
-8.72068e-06
-8.95514e-06
-9.09296e-06
-9.10953e-06
-8.98008e-06
-8.68069e-06
-8.18961e-06
-7.48926e-06
-6.56889e-06
-5.42847e-06
-4.08412e-06
-2.57527e-06
-9.72674e-07
6.14727e-07
2.03807e-06
3.11578e-06
3.65716e-06
3.5327e-06
2.95222e-06
-5.79451e-06
-5.96155e-06
-6.05091e-06
-6.01588e-06
-5.89726e-06
-5.73934e-06
-5.57854e-06
-5.44342e-06
-5.35492e-06
-5.32672e-06
-5.36623e-06
-5.47582e-06
-5.65402e-06
-5.89629e-06
-6.19557e-06
-6.54258e-06
-6.92589e-06
-7.33201e-06
-7.74531e-06
-8.14807e-06
-8.52043e-06
-8.84054e-06
-9.08468e-06
-9.22762e-06
-9.24305e-06
-9.10427e-06
-8.78515e-06
-8.26145e-06
-7.51258e-06
-6.52419e-06
-5.29173e-06
-3.82567e-06
-2.15869e-06
-3.54909e-07
1.47969e-06
3.1887e-06
4.56391e-06
5.36352e-06
5.39195e-06
4.8489e-06
-6.45372e-06
-6.65035e-06
-6.72292e-06
-6.61824e-06
-6.40192e-06
-6.13846e-06
-5.87663e-06
-5.65178e-06
-5.488e-06
-5.39973e-06
-5.3937e-06
-5.47083e-06
-5.62785e-06
-5.85836e-06
-6.15349e-06
-6.50225e-06
-6.89162e-06
-7.30663e-06
-7.73026e-06
-8.14341e-06
-8.52486e-06
-8.85136e-06
-9.09771e-06
-9.23703e-06
-9.2412e-06
-9.08152e-06
-8.72954e-06
-8.15837e-06
-7.34438e-06
-6.26954e-06
-4.92479e-06
-3.31484e-06
-1.46496e-06
5.69142e-07
2.68802e-06
4.73242e-06
6.47021e-06
7.60375e-06
7.8548e-06
7.39489e-06
-7.27286e-06
-7.49365e-06
-7.5207e-06
-7.30069e-06
-6.94068e-06
-6.53332e-06
-6.14158e-06
-5.80679e-06
-5.55453e-06
-5.39822e-06
-5.34229e-06
-5.38488e-06
-5.51994e-06
-5.73847e-06
-6.02925e-06
-6.3792e-06
-6.77348e-06
-7.19543e-06
-7.62652e-06
-8.0462e-06
-8.43183e-06
-8.75868e-06
-9.00001e-06
-9.12726e-06
-9.11039e-06
-8.91852e-06
-8.52069e-06
-7.88708e-06
-6.99059e-06
-5.80903e-06
-4.32824e-06
-2.5463e-06
-4.79923e-07
1.82593e-06
4.28248e-06
6.7336e-06
8.92787e-06
1.05077e-05
1.10919e-05
1.07979e-05
-8.37176e-06
-8.58472e-06
-8.503e-06
-8.09033e-06
-7.5193e-06
-6.91799e-06
-6.36246e-06
-5.89666e-06
-5.5442e-06
-5.31441e-06
-5.20704e-06
-5.21573e-06
-5.33042e-06
-5.53869e-06
-5.82646e-06
-6.17826e-06
-6.5772e-06
-7.00488e-06
-7.44117e-06
-7.86406e-06
-8.24952e-06
-8.57137e-06
-8.80133e-06
-8.90916e-06
-8.86288e-06
-8.62932e-06
-8.17478e-06
-7.46611e-06
-6.4721e-06
-5.16544e-06
-3.52542e-06
-1.54169e-06
7.80211e-07
3.40979e-06
6.27498e-06
9.23203e-06
1.202e-05
1.42209e-05
1.53254e-05
1.5359e-05
-9.9723e-06
-1.00772e-05
-9.75329e-06
-9.01802e-06
-8.13868e-06
-7.27947e-06
-6.52181e-06
-5.90471e-06
-5.44357e-06
-5.139e-06
-4.98273e-06
-4.96172e-06
-5.06055e-06
-5.26259e-06
-5.55047e-06
-5.9061e-06
-6.31051e-06
-6.74352e-06
-7.18354e-06
-7.60718e-06
-7.98913e-06
-8.3019e-06
-8.51584e-06
-8.59911e-06
-8.5179e-06
-8.23676e-06
-7.71914e-06
-6.92819e-06
-5.82786e-06
-4.3844e-06
-2.56846e-06
-3.58026e-07
2.25708e-06
5.26735e-06
8.62737e-06
1.22215e-05
1.58002e-05
1.88956e-05
2.08437e-05
2.15247e-05
-1.24656e-05
-1.22139e-05
-1.13783e-05
-1.01053e-05
-8.7807e-06
-7.58555e-06
-6.58607e-06
-5.80204e-06
-5.23077e-06
-4.85728e-06
-4.66099e-06
-4.61961e-06
-4.71104e-06
-4.91383e-06
-5.20713e-06
-5.57026e-06
-5.98229e-06
-6.42152e-06
-6.86508e-06
-7.28851e-06
-7.66544e-06
-7.96739e-06
-8.16357e-06
-8.22088e-06
-8.10392e-06
-7.7752e-06
-7.19541e-06
-6.3239e-06
-5.11919e-06
-3.53984e-06
-1.54538e-06
9.02121e-07
3.83548e-06
7.27692e-06
1.12245e-05
1.56182e-05
2.02609e-05
2.46711e-05
2.8004e-05
2.99001e-05
-1.65087e-05
-1.53531e-05
-1.34579e-05
-1.12976e-05
-9.35004e-06
-7.73978e-06
-6.47277e-06
-5.52468e-06
-4.85958e-06
-4.4379e-06
-4.2219e-06
-4.17794e-06
-4.27655e-06
-4.49151e-06
-4.79884e-06
-5.17578e-06
-5.59992e-06
-6.04855e-06
-6.49797e-06
-6.92307e-06
-7.29691e-06
-7.59039e-06
-7.77208e-06
-7.80803e-06
-7.66177e-06
-7.29422e-06
-6.66379e-06
-5.72632e-06
-4.435e-06
-2.74007e-06
-5.88193e-07
2.07851e-06
5.32364e-06
9.21628e-06
1.38249e-05
1.91917e-05
2.52526e-05
3.1615e-05
3.7258e-05
4.13034e-05
-2.38604e-05
-2.00533e-05
-1.58317e-05
-1.22546e-05
-9.52301e-06
-7.48121e-06
-5.98698e-06
-4.93406e-06
-4.23439e-06
-3.81576e-06
-3.62134e-06
-3.60688e-06
-3.73711e-06
-3.98275e-06
-4.31819e-06
-4.71984e-06
-5.16491e-06
-5.6305e-06
-6.09285e-06
-6.52685e-06
-6.90554e-06
-7.19982e-06
-7.37815e-06
-7.40637e-06
-7.24757e-06
-6.86188e-06
-6.20624e-06
-5.23401e-06
-3.89411e-06
-2.12957e-06
1.25138e-07
2.94853e-06
6.43935e-06
1.0727e-05
1.59828e-05
2.24217e-05
3.02581e-05
3.94927e-05
4.93721e-05
5.81501e-05
-4.14822e-05
-2.72504e-05
-1.76035e-05
-1.20824e-05
-8.6622e-06
-6.37641e-06
-4.84358e-06
-3.84777e-06
-3.23896e-06
-2.91549e-06
-2.80913e-06
-2.87219e-06
-3.06919e-06
-3.37183e-06
-3.75583e-06
-4.19891e-06
-4.67946e-06
-5.17559e-06
-5.66445e-06
-6.12168e-06
-6.52101e-06
-6.83392e-06
-7.02941e-06
-7.07374e-06
-6.9303e-06
-6.55927e-06
-5.91735e-06
-4.95695e-06
-3.62503e-06
-1.86067e-06
4.09095e-07
3.27693e-06
6.86901e-06
1.13698e-05
1.7065e-05
2.44071e-05
3.41022e-05
4.72339e-05
6.55087e-05
8.84808e-05
-7.92147e-05
-3.74868e-05
-1.82185e-05
-1.0915e-05
-7.12713e-06
-4.76735e-06
-3.3387e-06
-2.51712e-06
-2.08159e-06
-1.90773e-06
-1.92549e-06
-2.09064e-06
-2.37187e-06
-2.74467e-06
-3.18795e-06
-3.68198e-06
-4.20724e-06
-4.7435e-06
-5.26932e-06
-5.7615e-06
-6.19481e-06
-6.54161e-06
-6.77173e-06
-6.85219e-06
-6.74705e-06
-6.41715e-06
-5.81969e-06
-4.90748e-06
-3.62756e-06
-1.91857e-06
2.94076e-07
3.10741e-06
6.65879e-06
1.11621e-05
1.69851e-05
2.48175e-05
3.60409e-05
5.36088e-05
8.46327e-05
0.000136379
)
;

boundaryField
{
    movingWall
    {
        type            zeroGradient;
    }
    fixedWalls
    {
        type            zeroGradient;
    }
    frontAndBack
    {
        type            empty;
    }
}


// ************************************************************************* //
