/*--------------------------------*- C++ -*----------------------------------*\
  =========                 |
  \\      /  F ield         | OpenFOAM: The Open Source CFD Toolbox
   \\    /   O peration     | Website:  https://openfoam.org
    \\  /    A nd           | Version:  8
     \\/     M anipulation  |
\*---------------------------------------------------------------------------*/
FoamFile
{
    version     2.0;
    format      ascii;
    class       volVectorField;
    location    "32";
    object      U;
}
// * * * * * * * * * * * * * * * * * * * * * * * * * * * * * * * * * * * * * //

dimensions      [0 1 -1 0 0 0 0];

internalField   nonuniform List<vector> 
1600
(
(5.0337e-07 -5.07204e-07 0)
(1.34249e-06 -4.16757e-07 0)
(9.79956e-07 -8.09219e-08 0)
(-9.52156e-07 2.70896e-07 0)
(-4.45549e-06 5.7819e-07 0)
(-9.29697e-06 8.02096e-07 0)
(-1.5184e-05 9.58947e-07 0)
(-2.18645e-05 1.0925e-06 0)
(-2.90851e-05 1.15961e-06 0)
(-3.66165e-05 1.19151e-06 0)
(-4.42682e-05 1.20877e-06 0)
(-5.18778e-05 1.19802e-06 0)
(-5.92928e-05 1.16704e-06 0)
(-6.6346e-05 1.1121e-06 0)
(-7.28872e-05 1.02859e-06 0)
(-7.87554e-05 9.12897e-07 0)
(-8.38034e-05 7.7102e-07 0)
(-8.78773e-05 6.18043e-07 0)
(-9.08147e-05 4.26341e-07 0)
(-9.24876e-05 2.00501e-07 0)
(-9.27827e-05 -2.47053e-08 0)
(-9.16222e-05 -2.74511e-07 0)
(-8.89664e-05 -5.29453e-07 0)
(-8.48376e-05 -7.76984e-07 0)
(-7.93074e-05 -1.01544e-06 0)
(-7.25193e-05 -1.21446e-06 0)
(-6.46636e-05 -1.39164e-06 0)
(-5.59992e-05 -1.49821e-06 0)
(-4.68503e-05 -1.56576e-06 0)
(-3.75411e-05 -1.55075e-06 0)
(-2.84565e-05 -1.4539e-06 0)
(-1.99677e-05 -1.29499e-06 0)
(-1.24162e-05 -1.07999e-06 0)
(-6.11889e-06 -8.08347e-07 0)
(-1.33177e-06 -4.8208e-07 0)
(1.80242e-06 -1.57925e-07 0)
(3.25147e-06 1.71594e-07 0)
(3.15307e-06 4.5443e-07 0)
(1.97886e-06 6.20398e-07 0)
(4.73398e-07 4.71063e-07 0)
(4.18458e-07 -1.36137e-06 0)
(2.54556e-07 -2.10719e-07 0)
(-3.06825e-06 2.57819e-06 0)
(-1.00545e-05 5.67995e-06 0)
(-2.06761e-05 8.47956e-06 0)
(-3.45215e-05 1.08053e-05 0)
(-5.09088e-05 1.25988e-05 0)
(-6.92308e-05 1.39177e-05 0)
(-8.90092e-05 1.47612e-05 0)
(-0.000109521 1.5187e-05 0)
(-0.000130301 1.52853e-05 0)
(-0.000150974 1.50431e-05 0)
(-0.000171035 1.44338e-05 0)
(-0.000190027 1.36096e-05 0)
(-0.000207579 1.24295e-05 0)
(-0.000223233 1.093e-05 0)
(-0.000236503 9.10741e-06 0)
(-0.000247146 6.98825e-06 0)
(-0.000254747 4.55841e-06 0)
(-0.000258837 1.91406e-06 0)
(-0.000259311 -8.82455e-07 0)
(-0.000255915 -3.8135e-06 0)
(-0.0002486 -6.74216e-06 0)
(-0.000237537 -9.61217e-06 0)
(-0.000222799 -1.22363e-05 0)
(-0.000204748 -1.45971e-05 0)
(-0.000184059 -1.63605e-05 0)
(-0.000161279 -1.77138e-05 0)
(-0.000137202 -1.83573e-05 0)
(-0.000112685 -1.83081e-05 0)
(-8.85998e-05 -1.75174e-05 0)
(-6.59117e-05 -1.59593e-05 0)
(-4.55691e-05 -1.38295e-05 0)
(-2.822e-05 -1.11585e-05 0)
(-1.43824e-05 -8.05498e-06 0)
(-4.61651e-06 -4.8022e-06 0)
(1.14733e-06 -1.63409e-06 0)
(3.28463e-06 1.02202e-06 0)
(2.62344e-06 2.52164e-06 0)
(6.25596e-07 1.97217e-06 0)
(8.63165e-08 -1.00729e-06 0)
(-2.65634e-06 3.10123e-06 0)
(-1.04155e-05 1.00981e-05 0)
(-2.34233e-05 1.76262e-05 0)
(-4.15254e-05 2.45904e-05 0)
(-6.4024e-05 3.03943e-05 0)
(-9.01424e-05 3.50152e-05 0)
(-0.000119078 3.83038e-05 0)
(-0.000149939 4.05027e-05 0)
(-0.000181924 4.16438e-05 0)
(-0.00021423 4.17474e-05 0)
(-0.000246232 4.0979e-05 0)
(-0.000277185 3.93211e-05 0)
(-0.000306356 3.67869e-05 0)
(-0.000333245 3.34472e-05 0)
(-0.000357117 2.92303e-05 0)
(-0.000377355 2.42027e-05 0)
(-0.000393407 1.83824e-05 0)
(-0.00040464 1.1854e-05 0)
(-0.000410609 4.77088e-06 0)
(-0.000411011 -2.84799e-06 0)
(-0.000405641 -1.06561e-05 0)
(-0.000394396 -1.84556e-05 0)
(-0.000377373 -2.6023e-05 0)
(-0.000354977 -3.29185e-05 0)
(-0.000327676 -3.90056e-05 0)
(-0.000296326 -4.38875e-05 0)
(-0.000261857 -4.72926e-05 0)
(-0.000225313 -4.90588e-05 0)
(-0.000188065 -4.89541e-05 0)
(-0.000151293 -4.70293e-05 0)
(-0.000116446 -4.33217e-05 0)
(-8.47456e-05 -3.80519e-05 0)
(-5.71199e-05 -3.12924e-05 0)
(-3.45964e-05 -2.36295e-05 0)
(-1.76432e-05 -1.55415e-05 0)
(-6.32523e-06 -7.6378e-06 0)
(-3.29426e-07 -9.32836e-07 0)
(1.39141e-06 3.30013e-06 0)
(5.05366e-07 3.23486e-06 0)
(-2.89488e-07 1.02494e-06 0)
(-6.16113e-06 1.03921e-05 0)
(-1.89878e-05 2.33556e-05 0)
(-3.85136e-05 3.66775e-05 0)
(-6.43174e-05 4.89189e-05 0)
(-9.54657e-05 5.92841e-05 0)
(-0.000130936 6.74618e-05 0)
(-0.000169695 7.34118e-05 0)
(-0.000210735 7.72889e-05 0)
(-0.000253111 7.92002e-05 0)
(-0.000295745 7.92782e-05 0)
(-0.000337793 7.76062e-05 0)
(-0.00037843 7.43436e-05 0)
(-0.000416637 6.94078e-05 0)
(-0.000451702 6.28841e-05 0)
(-0.000482768 5.47803e-05 0)
(-0.000508935 4.5157e-05 0)
(-0.000529638 3.40936e-05 0)
(-0.000544103 2.17794e-05 0)
(-0.000551769 8.38152e-06 0)
(-0.000552267 -5.8234e-06 0)
(-0.000545169 -2.03935e-05 0)
(-0.000530596 -3.48758e-05 0)
(-0.000508665 -4.88107e-05 0)
(-0.000479767 -6.16707e-05 0)
(-0.000444632 -7.28524e-05 0)
(-0.000404181 -8.19524e-05 0)
(-0.000359638 -8.83246e-05 0)
(-0.000312322 -9.17612e-05 0)
(-0.00026381 -9.19038e-05 0)
(-0.000215773 -8.86793e-05 0)
(-0.00016985 -8.22854e-05 0)
(-0.000127489 -7.28891e-05 0)
(-9.00719e-05 -6.09851e-05 0)
(-5.87681e-05 -4.7425e-05 0)
(-3.42059e-05 -3.29833e-05 0)
(-1.6637e-05 -1.88963e-05 0)
(-5.80298e-06 -6.69039e-06 0)
(-6.69628e-07 1.74806e-06 0)
(3.10274e-07 3.67078e-06 0)
(-6.57043e-07 4.90224e-06 0)
(-9.73422e-06 2.20714e-05 0)
(-2.78776e-05 4.26364e-05 0)
(-5.42563e-05 6.30714e-05 0)
(-8.77807e-05 8.1459e-05 0)
(-0.000127387 9.70229e-05 0)
(-0.000171893 0.000109251 0)
(-0.000220063 0.000118228 0)
(-0.000270669 0.000123933 0)
(-0.00032263 0.000126642 0)
(-0.000374757 0.000126541 0)
(-0.000425986 0.000123668 0)
(-0.000475317 0.000118149 0)
(-0.000521684 0.000110173 0)
(-0.000564167 9.95648e-05 0)
(-0.000601735 8.65932e-05 0)
(-0.000633466 7.12189e-05 0)
(-0.000658501 5.35537e-05 0)
(-0.000676 3.40349e-05 0)
(-0.000685409 1.2857e-05 0)
(-0.000686147 -9.42554e-06 0)
(-0.000677911 -3.22856e-05 0)
(-0.000660689 -5.50416e-05 0)
(-0.000634688 -7.68747e-05 0)
(-0.000600335 -9.70265e-05 0)
(-0.000558451 -0.000114628 0)
(-0.000510096 -0.000128896 0)
(-0.000456607 -0.000139204 0)
(-0.000399593 -0.00014484 0)
(-0.000340779 -0.000145537 0)
(-0.000282154 -0.000141163 0)
(-0.000225624 -0.000131789 0)
(-0.000172887 -0.000117791 0)
(-0.000125706 -0.000100056 0)
(-8.54262e-05 -7.94936e-05 0)
(-5.28172e-05 -5.76023e-05 0)
(-2.84307e-05 -3.60493e-05 0)
(-1.2098e-05 -1.69308e-05 0)
(-3.02355e-06 -2.76671e-06 0)
(9.10388e-08 2.94371e-06 0)
(-9.9447e-07 1.06021e-05 0)
(-1.32218e-05 3.81572e-05 0)
(-3.6597e-05 6.79835e-05 0)
(-6.97662e-05 9.67047e-05 0)
(-0.000111091 0.000122139 0)
(-0.000159081 0.000143412 0)
(-0.00021232 0.000160125 0)
(-0.00026942 0.00017222 0)
(-0.000329112 0.000179871 0)
(-0.000390027 0.000183297 0)
(-0.000450985 0.000182726 0)
(-0.000510862 0.000178275 0)
(-0.000568312 0.000170121 0)
(-0.000622289 0.000158308 0)
(-0.000671714 0.000142904 0)
(-0.000715405 0.000124098 0)
(-0.000752444 0.000101888 0)
(-0.000781742 7.66647e-05 0)
(-0.000802423 4.86919e-05 0)
(-0.000813839 1.85019e-05 0)
(-0.000815396 -1.3199e-05 0)
(-0.00080664 -4.57283e-05 0)
(-0.000787564 -7.80856e-05 0)
(-0.00075832 -0.000109215 0)
(-0.000719423 -0.000137966 0)
(-0.000671662 -0.00016321 0)
(-0.000616291 -0.000183873 0)
(-0.000554669 -0.00019889 0)
(-0.000488504 -0.000207563 0)
(-0.000419991 -0.000209342 0)
(-0.000351099 -0.000203951 0)
(-0.000283975 -0.000191594 0)
(-0.000220841 -0.000172777 0)
(-0.000163556 -0.000148562 0)
(-0.000113795 -0.000120314 0)
(-7.27751e-05 -8.98833e-05 0)
(-4.10594e-05 -5.95854e-05 0)
(-1.88032e-05 -3.20849e-05 0)
(-5.52029e-06 -1.05371e-05 0)
(-1.02432e-07 9.74597e-07 0)
(-1.30257e-06 1.80404e-05 0)
(-1.65681e-05 5.85096e-05 0)
(-4.50648e-05 9.94683e-05 0)
(-8.4812e-05 0.00013744 0)
(-0.000133709 0.000170713 0)
(-0.000189771 0.000198213 0)
(-0.000251484 0.000219698 0)
(-0.000317254 0.000235055 0)
(-0.00038556 0.000244635 0)
(-0.000455075 0.000248634 0)
(-0.000524452 0.000247323 0)
(-0.00059237 0.000240961 0)
(-0.000657579 0.000229684 0)
(-0.000718865 0.000213559 0)
(-0.000774945 0.000192699 0)
(-0.000824756 0.000167276 0)
(-0.000867076 0.000137461 0)
(-0.00090081 0.000103594 0)
(-0.000925099 6.61238e-05 0)
(-0.000938996 2.57623e-05 0)
(-0.000941936 -1.66392e-05 0)
(-0.000933482 -6.00537e-05 0)
(-0.000913404 -0.000103283 0)
(-0.00088187 -0.000144962 0)
(-0.000839275 -0.000183635 0)
(-0.00078655 -0.000217758 0)
(-0.000724784 -0.000245986 0)
(-0.000655568 -0.00026692 0)
(-0.000580856 -0.000279514 0)
(-0.000502645 -0.000283085 0)
(-0.000423418 -0.000277184 0)
(-0.000345629 -0.000262004 0)
(-0.00027162 -0.000238221 0)
(-0.000203787 -0.000207027 0)
(-0.000144031 -0.000170315 0)
(-9.38431e-05 -0.000130353 0)
(-5.43061e-05 -8.99839e-05 0)
(-2.5736e-05 -5.25013e-05 0)
(-8.00511e-06 -2.16975e-05 0)
(-2.89578e-07 -2.24137e-06 0)
(-1.59442e-06 2.71146e-05 0)
(-1.96805e-05 8.29352e-05 0)
(-5.31235e-05 0.000136731 0)
(-9.92214e-05 0.000185278 0)
(-0.000155298 0.000227037 0)
(-0.000219198 0.000261198 0)
(-0.000289041 0.000287523 0)
(-0.00036306 0.000306318 0)
(-0.00043965 0.000317724 0)
(-0.000517371 0.000322185 0)
(-0.000594729 0.000319959 0)
(-0.000670455 0.000311411 0)
(-0.000743124 0.000296593 0)
(-0.000811511 0.000275739 0)
(-0.000874303 0.000248865 0)
(-0.000930186 0.000216212 0)
(-0.000978091 0.000178027 0)
(-0.00101676 0.000134744 0)
(-0.00104508 8.69421e-05 0)
(-0.00106222 3.54221e-05 0)
(-0.00106741 -1.8766e-05 0)
(-0.00106003 -7.43145e-05 0)
(-0.00103992 -0.000129667 0)
(-0.00100705 -0.000183255 0)
(-0.00096173 -0.000233224 0)
(-0.000904781 -0.000277638 0)
(-0.00083746 -0.000314726 0)
(-0.000761168 -0.000342891 0)
(-0.000677954 -0.000360576 0)
(-0.00059024 -0.000366768 0)
(-0.000500472 -0.000361073 0)
(-0.000411447 -0.000343415 0)
(-0.000325996 -0.000314638 0)
(-0.000246806 -0.000276189 0)
(-0.000176307 -0.000230218 0)
(-0.000116361 -0.000179561 0)
(-6.83011e-05 -0.000127702 0)
(-3.29536e-05 -7.84847e-05 0)
(-1.05633e-05 -3.6426e-05 0)
(-4.5862e-07 -6.69602e-06 0)
(-1.85505e-06 3.77211e-05 0)
(-2.25939e-05 0.000111245 0)
(-6.05972e-05 0.000179463 0)
(-0.000112742 0.000239746 0)
(-0.000175751 0.000290731 0)
(-0.000247105 0.000331958 0)
(-0.000324621 0.000363451 0)
(-0.000406474 0.000385626 0)
(-0.000490987 0.000398886 0)
(-0.000576534 0.000403638 0)
(-0.000661594 0.000400377 0)
(-0.000744803 0.000389321 0)
(-0.000824782 0.000370745 0)
(-0.000900227 0.00034471 0)
(-0.000969741 0.00031147 0)
(-0.00103205 0.000271073 0)
(-0.00108581 0.000223976 0)
(-0.0011298 0.000170613 0)
(-0.00116296 0.000111741 0)
(-0.00118417 4.8157e-05 0)
(-0.00119257 -1.87139e-05 0)
(-0.0011874 -8.74595e-05 0)
(-0.0011683 -0.000156283 0)
(-0.00113519 -0.000223094 0)
(-0.00108813 -0.00028582 0)
(-0.00102794 -0.000342089 0)
(-0.000955665 -0.000389653 0)
(-0.000872827 -0.000426345 0)
(-0.000781429 -0.000450534 0)
(-0.000684009 -0.000460656 0)
(-0.000583392 -0.00045592 0)
(-0.000482631 -0.000436427 0)
(-0.000384968 -0.00040284 0)
(-0.000293583 -0.000356827 0)
(-0.000211314 -0.000300892 0)
(-0.000140628 -0.000238353 0)
(-8.33534e-05 -0.000173312 0)
(-4.06611e-05 -0.000110449 0)
(-1.32082e-05 -5.48716e-05 0)
(-6.22345e-07 -1.24071e-05 0)
(-2.0935e-06 4.97452e-05 0)
(-2.52682e-05 0.000143155 0)
(-6.75779e-05 0.000227344 0)
(-0.00012531 0.000300355 0)
(-0.000194772 0.000361294 0)
(-0.000273102 0.000410048 0)
(-0.000357907 0.00044703 0)
(-0.00044715 0.000472625 0)
(-0.000539145 0.000487679 0)
(-0.000632145 0.000492741 0)
(-0.000724574 0.000488265 0)
(-0.000815076 0.000474598 0)
(-0.000902231 0.000452038 0)
(-0.00098468 0.000420623 0)
(-0.00106108 0.000380682 0)
(-0.00112997 0.000332302 0)
(-0.00119011 0.000275905 0)
(-0.00124013 0.000211923 0)
(-0.00127883 0.000141258 0)
(-0.00130503 6.5015e-05 0)
(-0.00131764 -1.54942e-05 0)
(-0.00131586 -9.84798e-05 0)
(-0.00129902 -0.000181938 0)
(-0.00126683 -0.000263428 0)
(-0.00121928 -0.000340367 0)
(-0.0011568 -0.000410185 0)
(-0.00108044 -0.000469948 0)
(-0.000991629 -0.000517077 0)
(-0.000892438 -0.000549328 0)
(-0.000785317 -0.000564853 0)
(-0.000673521 -0.000562387 0)
(-0.000560453 -0.000541817 0)
(-0.000449659 -0.000503712 0)
(-0.000344948 -0.000449892 0)
(-0.000249822 -0.000383199 0)
(-0.000167306 -0.000307547 0)
(-9.98237e-05 -0.000227581 0)
(-4.909e-05 -0.000148869 0)
(-1.60819e-05 -7.72542e-05 0)
(-7.91684e-07 -1.94673e-05 0)
(-2.30707e-06 6.30683e-05 0)
(-2.77519e-05 0.000178317 0)
(-7.39616e-05 0.000280056 0)
(-0.000136824 0.00036681 0)
(-0.000212207 0.000438344 0)
(-0.000296903 0.000495047 0)
(-0.000388521 0.000537646 0)
(-0.00048477 0.000566907 0)
(-0.00058367 0.000583785 0)
(-0.000683678 0.000589112 0)
(-0.000783154 0.000583359 0)
(-0.000880643 0.000567042 0)
(-0.000974844 0.000540356 0)
(-0.00106431 0.000503538 0)
(-0.00114758 0.000456723 0)
(-0.00122342 0.000400174 0)
(-0.00129039 0.000334193 0)
(-0.00134707 0.000259375 0)
(-0.00139208 0.00017655 0)
(-0.0014242 8.70391e-05 0)
(-0.00144225 -7.89952e-06 0)
(-0.00144505 -0.000106084 0)
(-0.00143182 -0.000205274 0)
(-0.00140194 -0.000302867 0)
(-0.00135514 -0.000395738 0)
(-0.00129173 -0.000480847 0)
(-0.00121231 -0.00055483 0)
(-0.00111836 -0.000614464 0)
(-0.0010118 -0.000656831 0)
(-0.000895173 -0.000679524 0)
(-0.00077194 -0.000680912 0)
(-0.000645871 -0.000660298 0)
(-0.000521073 -0.000618258 0)
(-0.000401963 -0.000556594 0)
(-0.000292737 -0.000478467 0)
(-0.000197104 -0.000388263 0)
(-0.000118245 -0.000291523 0)
(-5.84741e-05 -0.000194498 0)
(-1.92839e-05 -0.000104046 0)
(-9.68733e-07 -2.79964e-05 0)
(-2.50904e-06 7.75724e-05 0)
(-2.99039e-05 0.000216554 0)
(-7.9616e-05 0.000337065 0)
(-0.000147166 0.000438522 0)
(-0.000227861 0.000521369 0)
(-0.000318405 0.000586371 0)
(-0.000416141 0.000634723 0)
(-0.000518698 0.000667832 0)
(-0.000624086 0.000686646 0)
(-0.000730612 0.000692226 0)
(-0.000836701 0.000685309 0)
(-0.00094088 0.000666279 0)
(-0.00104183 0.000635593 0)
(-0.00113814 0.000593397 0)
(-0.00122847 0.000539792 0)
(-0.00131136 0.00047504 0)
(-0.00138551 0.000399446 0)
(-0.00144941 0.0003137 0)
(-0.00150149 0.0002185 0)
(-0.0015406 0.00011518 0)
(-0.00156517 5.3285e-06 0)
(-0.00157382 -0.000108875 0)
(-0.00156564 -0.00022501 0)
(-0.00153961 -0.000340001 0)
(-0.00149511 -0.000450586 0)
(-0.00143217 -0.000552923 0)
(-0.00135108 -0.000643262 0)
(-0.00125306 -0.000717672 0)
(-0.00113987 -0.000772485 0)
(-0.00101419 -0.000804581 0)
(-0.000879513 -0.000811793 0)
(-0.000740005 -0.000792705 0)
(-0.000600366 -0.000747631 0)
(-0.000465638 -0.000678283 0)
(-0.000340864 -0.000588126 0)
(-0.00023073 -0.000481982 0)
(-0.000139131 -0.000366221 0)
(-6.90954e-05 -0.00024821 0)
(-2.29588e-05 -0.000135897 0)
(-1.19809e-06 -3.81791e-05 0)
(-2.67204e-06 9.31237e-05 0)
(-3.18425e-05 0.000257455 0)
(-8.46229e-05 0.00039786 0)
(-0.000156122 0.000514926 0)
(-0.00024153 0.000609591 0)
(-0.000337305 0.000683351 0)
(-0.000440421 0.000737814 0)
(-0.000548637 0.000774808 0)
(-0.000659846 0.000795667 0)
(-0.000772245 0.000801647 0)
(-0.000884423 0.000793605 0)
(-0.000994815 0.000772105 0)
(-0.00110216 0.000737585 0)
(-0.00120513 0.000690133 0)
(-0.00130232 0.000629953 0)
(-0.00139243 0.000557196 0)
(-0.00147394 0.00047219 0)
(-0.00154546 0.000375477 0)
(-0.00160542 0.000267854 0)
(-0.00165226 0.000150588 0)
(-0.00168443 2.54157e-05 0)
(-0.00170032 -0.000105521 0)
(-0.00169863 -0.000239548 0)
(-0.00167801 -0.000373325 0)
(-0.00163755 -0.000503173 0)
(-0.00157674 -0.000624859 0)
(-0.00149561 -0.000733883 0)
(-0.001395 -0.000825663 0)
(-0.00127639 -0.000895623 0)
(-0.00114242 -0.000939805 0)
(-0.000996684 -0.000955118 0)
(-0.000843495 -0.000939517 0)
(-0.00068826 -0.000892667 0)
(-0.000536877 -0.000816192 0)
(-0.000395153 -0.000713465 0)
(-0.000268778 -0.000590037 0)
(-0.000162892 -0.000453048 0)
(-8.13847e-05 -0.000311081 0)
(-2.72002e-05 -0.000173381 0)
(-1.441e-06 -5.02804e-05 0)
(-2.78947e-06 0.000109549 0)
(-3.34812e-05 0.000300532 0)
(-8.87766e-05 0.000462036 0)
(-0.000163672 0.000595438 0)
(-0.000253028 0.000702415 0)
(-0.000353166 0.000785204 0)
(-0.000461036 0.000846116 0)
(-0.000574107 0.000887166 0)
(-0.000690309 0.000910267 0)
(-0.000807922 0.000916747 0)
(-0.000925478 0.000907782 0)
(-0.00104146 0.000884063 0)
(-0.00115467 0.000845851 0)
(-0.00126387 0.000793527 0)
(-0.00136764 0.000727069 0)
(-0.00146473 0.000646666 0)
(-0.0015537 0.000552548 0)
(-0.00163317 0.00044512 0)
(-0.0017013 0.000325306 0)
(-0.00175666 0.000194138 0)
(-0.00179733 5.34535e-05 0)
(-0.00182164 -9.4682e-05 0)
(-0.00182784 -0.000247305 0)
(-0.00181437 -0.000401089 0)
(-0.00177976 -0.000551758 0)
(-0.00172312 -0.000694813 0)
(-0.00164397 -0.000824966 0)
(-0.00154256 -0.00093689 0)
(-0.00142018 -0.001025 0)
(-0.00127921 -0.00108444 0)
(-0.00112309 -0.00111073 0)
(-0.000956527 -0.00110105 0)
(-0.000785429 -0.00105434 0)
(-0.000616313 -0.000971528 0)
(-0.000456184 -0.000856101 0)
(-0.000312067 -0.000714094 0)
(-0.000190172 -0.000553665 0)
(-9.54982e-05 -0.000384469 0)
(-3.21568e-05 -0.000217382 0)
(-1.75766e-06 -6.46049e-05 0)
(-2.89506e-06 0.000126691 0)
(-3.46781e-05 0.000345483 0)
(-9.19865e-05 0.000528881 0)
(-0.000169638 0.000679211 0)
(-0.000262271 0.000799008 0)
(-0.000365926 0.000891183 0)
(-0.000477522 0.000958682 0)
(-0.000594562 0.00100405 0)
(-0.000714954 0.00102951 0)
(-0.000836922 0.00103673 0)
(-0.000958912 0.00102707 0)
(-0.00107972 0.00100134 0)
(-0.0011981 0.000959874 0)
(-0.00131278 0.000903026 0)
(-0.00142263 0.000830841 0)
(-0.00152631 0.000743246 0)
(-0.00162254 0.000640491 0)
(-0.00170969 0.000522975 0)
(-0.00178628 0.000391325 0)
(-0.00185048 0.000246605 0)
(-0.00190044 9.04821e-05 0)
(-0.00193419 -7.50159e-05 0)
(-0.00194965 -0.000246835 0)
(-0.00194496 -0.000421445 0)
(-0.00191811 -0.000594426 0)
(-0.00186777 -0.000760691 0)
(-0.00179287 -0.00091441 0)
(-0.00169308 -0.00104934 0)
(-0.00156913 -0.00115895 0)
(-0.00142304 -0.00123703 0)
(-0.00125791 -0.00127784 0)
(-0.00107878 -0.00127727 0)
(-0.00089179 -0.00123306 0)
(-0.000704331 -0.0011454 0)
(-0.000524673 -0.00101766 0)
(-0.000361136 -0.000856089 0)
(-0.000221377 -0.000669677 0)
(-0.000111777 -0.000469735 0)
(-3.78962e-05 -0.000269028 0)
(-2.13609e-06 -8.15397e-05 0)
(-2.95123e-06 0.000144382 0)
(-3.55534e-05 0.000391848 0)
(-9.43258e-05 0.000597783 0)
(-0.000173958 0.000765556 0)
(-0.000268934 0.000898545 0)
(-0.000375204 0.00100045 0)
(-0.000489623 0.00107474 0)
(-0.00060965 0.00112449 0)
(-0.000733208 0.0011525 0)
(-0.000858425 0.00116067 0)
(-0.000983877 0.00115061 0)
(-0.0011085 0.0011231 0)
(-0.00123099 0.00107888 0)
(-0.00135023 0.00101795 0)
(-0.00146528 0.000940506 0)
(-0.00157486 0.000846448 0)
(-0.00167757 0.000735815 0)
(-0.00177213 0.000608915 0)
(-0.00185689 0.000466084 0)
(-0.00193002 0.000308374 0)
(-0.00198967 0.000137136 0)
(-0.00203356 -4.54405e-05 0)
(-0.00205945 -0.000236584 0)
(-0.00206496 -0.000432555 0)
(-0.00204793 -0.000628934 0)
(-0.00200615 -0.0008201 0)
(-0.00193805 -0.000999723 0)
(-0.00184263 -0.00116057 0)
(-0.00171993 -0.00129515 0)
(-0.00157116 -0.00139565 0)
(-0.00139926 -0.00145499 0)
(-0.00120904 -0.00146733 0)
(-0.00100691 -0.00142882 0)
(-0.000801021 -0.00133864 0)
(-0.000600952 -0.00119941 0)
(-0.000416387 -0.00101753 0)
(-0.00025681 -0.000802983 0)
(-0.000130581 -0.000568602 0)
(-4.4692e-05 -0.00032938 0)
(-2.60053e-06 -0.000101541 0)
(-2.97424e-06 0.000162423 0)
(-3.60344e-05 0.000439117 0)
(-9.56598e-05 0.000668128 0)
(-0.000176539 0.000853688 0)
(-0.000272979 0.00100018 0)
(-0.000380898 0.00111192 0)
(-0.000497176 0.00119315 0)
(-0.00061903 0.00124746 0)
(-0.000744458 0.0012781 0)
(-0.000871738 0.00128743 0)
(-0.000999525 0.00127717 0)
(-0.00112662 0.00124834 0)
(-0.00125199 0.00120168 0)
(-0.00137467 0.00113733 0)
(-0.00149363 0.00105525 0)
(-0.00160784 0.000955442 0)
(-0.00171613 0.000837824 0)
(-0.00181721 0.000702279 0)
(-0.00190949 0.000549241 0)
(-0.00199123 0.000379321 0)
(-0.00206043 0.000193882 0)
(-0.00211476 -5.23294e-06 0)
(-0.0021518 -0.000215396 0)
(-0.00216896 -0.000432932 0)
(-0.00216344 -0.000653248 0)
(-0.00213261 -0.000870551 0)
(-0.00207408 -0.00107798 0)
(-0.00198615 -0.00126757 0)
(-0.00186795 -0.00143051 0)
(-0.00171985 -0.0015576 0)
(-0.00154419 -0.00164004 0)
(-0.00134522 -0.00166976 0)
(-0.00112956 -0.00164111 0)
(-0.000905876 -0.00155148 0)
(-0.000684845 -0.00140243 0)
(-0.000478111 -0.00120015 0)
(-0.000297018 -0.000955419 0)
(-0.000152092 -0.000682875 0)
(-5.25413e-05 -0.000399701 0)
(-3.16059e-06 -0.000125123 0)
(-2.95063e-06 0.000180607 0)
(-3.61507e-05 0.000486868 0)
(-9.60646e-05 0.000739131 0)
(-0.000177376 0.00094271 0)
(-0.000274361 0.00110285 0)
(-0.000382946 0.00122454 0)
(-0.000499852 0.00131276 0)
(-0.000622399 0.00137177 0)
(-0.000748481 0.00140515 0)
(-0.000876424 0.00141573 0)
(-0.00100499 0.00140533 0)
(-0.00113314 0.00137555 0)
(-0.00125981 0.0013268 0)
(-0.00138432 0.00125958 0)
(-0.00150573 0.00117368 0)
(-0.00162305 0.00106898 0)
(-0.00173545 0.000945196 0)
(-0.00184172 0.000802145 0)
(-0.00194038 0.000639966 0)
(-0.00202976 0.000459155 0)
(-0.0021079 0.00026058 0)
(-0.00217262 4.59524e-05 0)
(-0.00222115 -0.000182421 0)
(-0.00225067 -0.000421044 0)
(-0.00225819 -0.000665334 0)
(-0.00224045 -0.000909481 0)
(-0.00219439 -0.00114617 0)
(-0.00211731 -0.00136677 0)
(-0.00200743 -0.00156149 0)
(-0.00186409 -0.00171944 0)
(-0.00168853 -0.00182976 0)
(-0.00148425 -0.00188212 0)
(-0.00125761 -0.00186838 0)
(-0.0010176 -0.00178345 0)
(-0.000776069 -0.00162735 0)
(-0.000546296 -0.00140534 0)
(-0.000342118 -0.00112888 0)
(-0.00017659 -0.000814278 0)
(-6.15819e-05 -0.000481498 0)
(-3.82185e-06 -0.000152854 0)
(-2.89562e-06 0.000198751 0)
(-3.59232e-05 0.000534498 0)
(-9.55515e-05 0.000810148 0)
(-0.000176549 0.00103191 0)
(-0.000273165 0.00120561 0)
(-0.000381351 0.00133727 0)
(-0.000497742 0.00143244 0)
(-0.000619641 0.00149607 0)
(-0.000744924 0.00153215 0)
(-0.000872117 0.00154395 0)
(-0.000999867 0.00153373 0)
(-0.00112724 0.00150305 0)
(-0.00125349 0.00145272 0)
(-0.00137783 0.00138302 0)
(-0.0014997 0.00129404 0)
(-0.00161832 0.00118526 0)
(-0.00173294 0.00105631 0)
(-0.00184256 0.00090704 0)
(-0.00194588 0.000737106 0)
(-0.00204146 0.000546745 0)
(-0.00212743 0.000336572 0)
(-0.00220161 0.000107864 0)
(-0.00226142 -0.000137315 0)
(-0.00230378 -0.000395886 0)
(-0.0023254 -0.000663521 0)
(-0.00232258 -0.000934389 0)
(-0.00229156 -0.00120115 0)
(-0.00222888 -0.00145453 0)
(-0.00213151 -0.00168382 0)
(-0.00199747 -0.00187666 0)
(-0.00182674 -0.00202 0)
(-0.00162172 -0.00210085 0)
(-0.00138793 -0.0021079 0)
(-0.00113436 -0.00203323 0)
(-0.000873495 -0.00187398 0)
(-0.000620622 -0.00163413 0)
(-0.000392207 -0.00132505 0)
(-0.000204283 -0.000964754 0)
(-7.20206e-05 -0.000576209 0)
(-4.62982e-06 -0.000185393 0)
(-2.7995e-06 0.00021667 0)
(-3.53309e-05 0.000581622 0)
(-9.40956e-05 0.000880515 0)
(-0.000174159 0.00112032 0)
(-0.000269653 0.00130758 0)
(-0.000376327 0.00144901 0)
(-0.000490959 0.00155093 0)
(-0.000610904 0.00161896 0)
(-0.000733951 0.00165762 0)
(-0.000858608 0.00167052 0)
(-0.000983734 0.00166047 0)
(-0.00110845 0.00162903 0)
(-0.00123211 0.00157739 0)
(-0.0013542 0.00150579 0)
(-0.0014743 0.00141413 0)
(-0.00159191 0.00130212 0)
(-0.0017064 0.00116926 0)
(-0.00181702 0.00101495 0)
(-0.00192287 0.000838786 0)
(-0.00202259 0.000640603 0)
(-0.0021146 0.000420674 0)
(-0.00219688 0.00017978 0)
(-0.00226694 -8.0367e-05 0)
(-0.00232182 -0.000357149 0)
(-0.00235795 -0.000646645 0)
(-0.0023714 -0.000943284 0)
(-0.00235784 -0.00123985 0)
(-0.00231277 -0.00152695 0)
(-0.00223216 -0.00179292 0)
(-0.00211257 -0.00202421 0)
(-0.00195234 -0.0022056 0)
(-0.0017521 -0.00232118 0)
(-0.00151625 -0.00235598 0)
(-0.00125311 -0.00229815 0)
(-0.000975583 -0.0021413 0)
(-0.000700506 -0.0018869 0)
(-0.000447112 -0.0015453 0)
(-0.000235168 -0.00113611 0)
(-8.38657e-05 -0.000685354 0)
(-5.58132e-06 -0.000223458 0)
(-2.70287e-06 0.000234209 0)
(-3.45491e-05 0.000628007 0)
(-9.20096e-05 0.000949728 0)
(-0.000170457 0.00120725 0)
(-0.000263941 0.00140772 0)
(-0.000368266 0.00155865 0)
(-0.000480049 0.00166696 0)
(-0.000596509 0.00173896 0)
(-0.000715734 0.0017798 0)
(-0.000836166 0.00179369 0)
(-0.000956661 0.0017835 0)
(-0.00107652 0.00175138 0)
(-0.00119531 0.00169842 0)
(-0.00131281 0.00162521 0)
(-0.00142861 0.00153162 0)
(-0.00154245 0.00141719 0)
(-0.00165411 0.00128142 0)
(-0.0017631 0.00112338 0)
(-0.00186873 0.000942578 0)
(-0.00197009 0.000738477 0)
(-0.00206578 0.00051081 0)
(-0.00215415 0.000260163 0)
(-0.00223289 -1.24837e-05 0)
(-0.00229917 -0.000304995 0)
(-0.00234954 -0.000614009 0)
(-0.00237979 -0.000934595 0)
(-0.00238531 -0.00125975 0)
(-0.00236081 -0.00158024 0)
(-0.00230103 -0.00188408 0)
(-0.00220109 -0.00215658 0)
(-0.00205744 -0.00238055 0)
(-0.0018687 -0.00253716 0)
(-0.00163718 -0.00260725 0)
(-0.00137004 -0.00257433 0)
(-0.0010798 -0.00242703 0)
(-0.000784576 -0.00216291 0)
(-0.000506465 -0.0017905 0)
(-0.00026931 -0.00132998 0)
(-9.73022e-05 -0.000810718 0)
(-6.73017e-06 -0.000267806 0)
(-2.57149e-06 0.000251274 0)
(-3.35449e-05 0.000673141 0)
(-8.95331e-05 0.00101737 0)
(-0.000165886 0.00129208 0)
(-0.000256781 0.00150528 0)
(-0.000357773 0.00166504 0)
(-0.000465505 0.0017792 0)
(-0.000577256 0.00185461 0)
(-0.000690957 0.00189715 0)
(-0.000805186 0.00191138 0)
(-0.000919003 0.00190079 0)
(-0.00103182 0.00186768 0)
(-0.00114332 0.00181353 0)
(-0.00125336 0.00173879 0)
(-0.00136211 0.00164371 0)
(-0.0014694 0.00152762 0)
(-0.00157523 0.00138985 0)
(-0.00167954 0.00122951 0)
(-0.00178197 0.00104569 0)
(-0.00188193 0.000837551 0)
(-0.00197841 0.000604632 0)
(-0.00207013 0.000346756 0)
(-0.0021552 6.45717e-05 0)
(-0.00223106 -0.000240536 0)
(-0.00229453 -0.000565979 0)
(-0.00234142 -0.000907482 0)
(-0.00236677 -0.00125884 0)
(-0.00236496 -0.00161121 0)
(-0.00232954 -0.00195263 0)
(-0.00225434 -0.00226788 0)
(-0.00213362 -0.00253814 0)
(-0.00196365 -0.00274163 0)
(-0.00174415 -0.00285505 0)
(-0.0014801 -0.00285606 0)
(-0.00118286 -0.00272729 0)
(-0.000871086 -0.00246049 0)
(-0.00056959 -0.00206078 0)
(-0.000306652 -0.00154768 0)
(-0.000112374 -0.000953711 0)
(-8.0977e-06 -0.000319252 0)
(-2.44633e-06 0.0002678 0)
(-3.25162e-05 0.000716967 0)
(-8.6923e-05 0.00108302 0)
(-0.000161012 0.00137433 0)
(-0.00024877 0.00159949 0)
(-0.000345758 0.00176735 0)
(-0.000448376 0.00188641 0)
(-0.000553937 0.00196437 0)
(-0.00066053 0.00200774 0)
(-0.000766696 0.00202158 0)
(-0.000871643 0.00201005 0)
(-0.000974894 0.00197557 0)
(-0.00107649 0.00192 0)
(-0.00117651 0.00184391 0)
(-0.00127515 0.00174747 0)
(-0.00137277 0.00163032 0)
(-0.00146964 0.00149149 0)
(-0.00156604 0.00133007 0)
(-0.0016619 0.00114487 0)
(-0.00175706 0.000934823 0)
(-0.00185112 0.000699063 0)
(-0.00194306 0.000436919 0)
(-0.00203147 0.00014844 0)
(-0.00211444 -0.000165735 0)
(-0.00218885 -0.000503694 0)
(-0.00225108 -0.000862319 0)
(-0.00229618 -0.00123613 0)
(-0.00231807 -0.00161735 0)
(-0.0023098 -0.00199461 0)
(-0.0022637 -0.0023526 0)
(-0.0021721 -0.00267139 0)
(-0.00202852 -0.00292677 0)
(-0.00182962 -0.00309125 0)
(-0.00157717 -0.00313611 0)
(-0.00128046 -0.00303654 0)
(-0.000957625 -0.00277661 0)
(-0.000635361 -0.00235532 0)
(-0.000346822 -0.00179008 0)
(-0.000129144 -0.00111582 0)
(-9.70466e-06 -0.000378671 0)
(-2.3546e-06 0.000283823 0)
(-3.1753e-05 0.000759587 0)
(-8.47168e-05 0.00114674 0)
(-0.000156527 0.00145382 0)
(-0.000240998 0.00168988 0)
(-0.000333368 0.00186467 0)
(-0.000429938 0.00198745 0)
(-0.000528065 0.00206673 0)
(-0.000625838 0.00210977 0)
(-0.000721869 0.00212241 0)
(-0.000815663 0.0021089 0)
(-0.000906982 0.00207256 0)
(-0.00099592 0.002015 0)
(-0.00108304 0.00193748 0)
(-0.00116866 0.00183995 0)
(-0.00125346 0.00172214 0)
(-0.00133809 0.001583 0)
(-0.00142313 0.00142166 0)
(-0.00150898 0.00123667 0)
(-0.00159588 0.00102671 0)
(-0.00168384 0.000790538 0)
(-0.00177252 0.000527223 0)
(-0.00186095 0.000235986 0)
(-0.00194761 -8.31484e-05 0)
(-0.00203033 -0.000429246 0)
(-0.00210563 -0.000800196 0)
(-0.00216897 -0.00119181 0)
(-0.00221454 -0.0015974 0)
(-0.0022348 -0.00200686 0)
(-0.00222119 -0.00240561 0)
(-0.00216407 -0.00277333 0)
(-0.0020545 -0.00308419 0)
(-0.00188531 -0.00330663 0)
(-0.00165438 -0.00340577 0)
(-0.00136751 -0.00334761 0)
(-0.00104089 -0.00310633 0)
(-0.000702297 -0.00267211 0)
(-0.000389506 -0.00205753 0)
(-0.00014759 -0.00129844 0)
(-1.15803e-05 -0.000446957 0)
(-2.30084e-06 0.000299509 0)
(-3.13553e-05 0.000801231 0)
(-8.34913e-05 0.00120879 0)
(-0.000153573 0.00153052 0)
(-0.000234723 0.00177616 0)
(-0.000322075 0.00195629 0)
(-0.000411849 0.0020812 0)
(-0.000501212 0.00216017 0)
(-0.000588418 0.00220147 0)
(-0.000672459 0.00221144 0)
(-0.000752769 0.00219506 0)
(-0.000829539 0.00215586 0)
(-0.00090321 0.00209594 0)
(-0.000974381 0.00201649 0)
(-0.00104397 0.00191795 0)
(-0.00111289 0.00179975 0)
(-0.00118204 0.00166118 0)
(-0.00125235 0.00150093 0)
(-0.00132472 0.0013176 0)
(-0.00139979 0.0011097 0)
(-0.00147803 0.000875652 0)
(-0.00155957 0.000613976 0)
(-0.00164421 0.000323621 0)
(-0.00173102 3.77945e-06 0)
(-0.0018184 -0.000345652 0)
(-0.0019037 -0.000723481 0)
(-0.00198286 -0.0011271 0)
(-0.0020505 -0.00155136 0)
(-0.00209939 -0.00198776 0)
(-0.00212011 -0.00242309 0)
(-0.00210185 -0.00283795 0)
(-0.00203294 -0.00320561 0)
(-0.00190267 -0.00349142 0)
(-0.00170407 -0.00365452 0)
(-0.00143786 -0.00365102 0)
(-0.00111687 -0.0034427 0)
(-0.000768351 -0.00300748 0)
(-0.000434038 -0.00234925 0)
(-0.000167702 -0.00150253 0)
(-1.37738e-05 -0.000525011 0)
(-2.35425e-06 0.000315175 0)
(-3.19359e-05 0.000842639 0)
(-8.4122e-05 0.00126981 0)
(-0.000153198 0.0016049 0)
(-0.000231638 0.00185841 0)
(-0.00031389 0.00204176 0)
(-0.000396093 0.00216658 0)
(-0.000475475 0.00224327 0)
(-0.000550459 0.00228086 0)
(-0.00062026 0.00228663 0)
(-0.000684727 0.00226596 0)
(-0.000744382 0.00222287 0)
(-0.000800016 0.00215986 0)
(-0.000852477 0.00207823 0)
(-0.000902974 0.00197842 0)
(-0.000952846 0.00186009 0)
(-0.00100334 0.00172259 0)
(-0.00105577 0.00156437 0)
(-0.00111127 0.00138416 0)
(-0.00117097 0.00118011 0)
(-0.00123591 0.000950455 0)
(-0.00130666 0.000693475 0)
(-0.0013835 0.000407501 0)
(-0.00146646 9.11023e-05 0)
(-0.00155453 -0.000256539 0)