/*--------------------------------*- C++ -*----------------------------------*\
  =========                 |
  \\      /  F ield         | OpenFOAM: The Open Source CFD Toolbox
   \\    /   O peration     | Website:  https://openfoam.org
    \\  /    A nd           | Version:  8
     \\/     M anipulation  |
\*---------------------------------------------------------------------------*/
FoamFile
{
    version     2.0;
    format      ascii;
    class       volScalarField;
    location    "287";
    object      epsilon;
}
// * * * * * * * * * * * * * * * * * * * * * * * * * * * * * * * * * * * * * //

dimensions      [0 2 -3 0 0 0 0];

internalField   nonuniform List<scalar> 
12225
(
285.516
270.697
257.922
243.802
232.472
223.072
216.825
212.693
212.742
213.942
217.25
220.853
228.103
232.711
241.296
246.677
254.056
264.19
52.4944
91.8791
106.972
114.746
124.841
136.779
152.682
169.898
191.084
210.922
235.173
255.46
280.949
299.279
324.558
339.174
364.217
373.021
20.3233
34.8565
44.6743
50.47
55.3942
59.6081
64.6601
69.6443
76.3077
83.1835
91.4167
99.3125
108.137
116.915
125.48
135.213
142.455
153.535
15.3482
19.6977
24.1121
27.5692
30.4962
32.8703
35.1532
37.2943
39.4993
41.9177
44.3315
47.1988
49.6729
53.0294
55.3973
59.2113
61.3987
65.5921
14.6508
15.8626
17.3668
19.0741
20.6378
22.0262
23.2452
24.4313
25.4429
26.5943
27.5218
28.7563
29.6293
30.9812
31.8079
33.2558
34.0664
35.628
14.7068
14.8769
15.2014
15.8668
16.5665
17.2869
17.9233
18.5841
19.1187
19.7336
20.1926
20.798
21.2073
21.8206
22.1959
22.8214
23.1744
23.8508
14.7421
14.6201
14.6248
14.737
14.9297
15.2191
15.4911
15.8088
16.0708
16.3824
16.6178
16.9197
17.1303
17.4261
17.6148
17.9103
18.0792
18.4028
14.7626
14.5866
14.4637
14.3812
14.3669
14.39
14.4381
14.5337
14.6185
14.7365
14.8307
14.9562
15.0475
15.1757
15.2605
15.3909
15.4688
15.618
14.7666
14.5908
14.4346
14.2963
14.1849
14.1044
14.0398
14.0066
13.9814
13.9785
13.9808
13.9916
14.004
14.0294
14.0469
14.0791
14.1027
14.1449
14.7663
14.5939
14.432
14.282
14.143
14.0219
13.9115
13.8194
13.737
13.6698
13.6102
13.5633
13.5181
13.4871
13.4516
13.4341
13.402
13.4005
14.7658
14.5945
14.4321
14.2803
14.1362
14.0032
13.8782
13.7644
13.6582
13.5629
13.4736
13.3952
13.3198
13.2561
13.1916
13.1408
13.0838
13.0451
14.7657
14.5943
14.4321
14.2798
14.1353
13.9999
13.8715
13.7518
13.6385
13.5337
13.4341
13.343
13.2557
13.1771
13.1003
13.0328
12.9647
12.9074
14.7657
14.5941
14.432
14.2794
14.1349
13.9989
13.8699
13.7485
13.6332
13.525
13.422
13.3257
13.2338
13.1484
13.0663
12.9906
12.9172
12.8502
14.7657
14.5939
14.4318
14.279
14.1346
13.9983
13.8692
13.7472
13.6315
13.5223
13.4184
13.3204
13.227
13.139
13.055
12.9759
12.9002
12.8291
14.7657
14.5938
14.4317
14.2787
14.1342
13.9977
13.8686
13.7464
13.6307
13.5211
13.4171
13.3185
13.2249
13.136
13.0516
12.9714
12.8951
12.8227
14.7657
14.5937
14.4315
14.2785
14.1339
13.9973
13.8681
13.7458
13.63
13.5202
13.4161
13.3174
13.2236
13.1346
13.05
12.9696
12.8931
12.8204
14.7657
14.5937
14.4315
14.2783
14.1337
13.997
13.8677
13.7453
13.6294
13.5195
13.4154
13.3165
13.2227
13.1336
13.0489
12.9684
12.8918
12.819
14.7657
14.5937
14.4314
14.2782
14.1335
13.9968
13.8674
13.7449
13.629
13.5191
13.4148
13.3159
13.222
13.1328
13.0481
12.9675
12.8908
12.8179
14.7657
14.5937
14.4314
14.2782
14.1335
13.9967
13.8673
13.7448
13.6288
13.5189
13.4146
13.3156
13.2217
13.1325
13.0477
12.967
12.8903
12.8174
14.7657
14.5937
14.4314
14.2782
14.1336
13.9968
13.8674
13.745
13.629
13.519
13.4148
13.3158
13.2219
13.1327
13.0479
12.9673
12.8906
12.8177
14.7657
14.5937
14.4315
14.2784
14.1337
13.997
13.8677
13.7453
13.6294
13.5195
13.4154
13.3166
13.2229
13.1338
13.0493
12.9689
12.8926
12.8199
14.7657
14.5937
14.4316
14.2785
14.1341
13.9974
13.8685
13.7464
13.6312
13.522
13.419
13.3213
13.2293
13.1418
13.0594
12.981
12.9073
12.8368
14.7658
14.5937
14.4318
14.2788
14.1353
14.0002
13.8742
13.756
13.6463
13.5435
13.4485
13.3591
13.277
13.1992
13.1282
13.0601
12.9988
12.9386
14.7655
14.5928
14.4328
14.2844
14.1515
14.0321
13.929
13.8375
13.7593
13.6894
13.6306
13.5769
13.5328
13.4905
13.4574
13.423
13.3989
13.3693
14.7592
14.5932
14.4603
14.3602
14.3029
14.2766
14.2805
14.2921
14.3211
14.3531
14.3959
14.4346
14.4825
14.5217
14.572
14.609
14.6617
14.694
14.7213
14.6911
14.754
14.9176
15.1828
15.4611
15.7476
16.012
16.2724
16.5039
16.7362
16.9387
17.1508
17.3311
17.5311
17.6938
17.8891
18.0362
14.7477
15.5124
16.5473
17.6841
18.7044
19.5676
20.3373
20.9969
21.6196
22.1663
22.7192
23.2111
23.7403
24.2048
24.7333
25.1833
25.7257
26.1668
15.9871
20.9921
25.0238
27.7605
29.7847
31.3586
32.7773
34.0582
35.3599
36.6169
37.9762
39.2981
40.7628
42.1472
43.7196
45.1758
46.8862
48.3612
29.9032
47.2183
54.8697
58.6737
61.6144
64.4326
67.5816
70.9789
74.7405
78.717
82.9887
87.3487
91.9103
96.4562
101.108
105.63
110.184
114.586
165.798
160.075
154.899
149.565
144.479
139.678
135.615
132.109
129.27
126.974
125.32
124.045
123.341
122.826
122.843
122.961
123.286
123.83
0.155622
0.199833
0.374169
0.528315
0.676
0.842953
1.03746
1.27015
1.54683
1.8661
2.22151
2.60424
3.00558
3.41762
3.83375
4.24827
4.65659
5.05491
5.44047
5.81156
6.16759
6.50928
6.83818
7.15689
7.46761
7.77225
8.07105
8.3669
8.66164
8.93693
9.18833
39.9476
41.0096
41.9161
42.5891
43.5534
43.931
44.2768
44.6226
44.167
42.7215
41.1878
41.6898
46.0929
48.6433
52.4696
55.8916
59.771
63.6743
67.8201
72.1009
76.5753
81.2171
86.0449
91.0533
96.2505
101.636
107.216
112.99
118.964
125.136
131.512
138.09
144.874
151.863
159.057
166.456
174.061
181.867
189.875
198.081
206.483
215.076
223.857
232.819
241.959
251.268
260.742
270.369
280.146
290.059
300.103
310.263
320.533
330.895
341.342
351.856
362.425
373.031
383.658
394.286
404.891
415.451
425.938
436.328
446.596
456.733
466.758
476.752
486.563
496.252
505.777
515.138
524.312
533.286
542.045
550.573
558.855
566.877
574.625
582.084
589.243
596.087
602.605
608.784
614.615
620.086
625.188
629.912
634.253
638.2
641.747
644.886
647.615
649.926
651.821
653.29
654.326
654.996
655.282
655.071
654.392
653.269
651.832
650.054
647.804
645.182
642.175
638.798
635.06
630.972
626.546
621.795
616.725
611.351
605.686
599.743
593.535
587.079
580.389
573.479
566.365
559.063
551.589
543.957
536.185
528.288
520.283
512.188
504.025
495.825
487.659
479.982
475.186
471.97
468.858
465.721
462.547
459.342
456.111
452.859
449.586
446.287
442.945
439.526
435.95
432.057
427.402
421.101
396.041
0.802406
0.499941
0.50745
0.574298
0.677089
0.810778
0.977617
1.17997
1.41818
1.68989
1.99066
2.31512
2.65799
3.01445
3.38051
3.75289
4.12929
4.50837
4.89006
5.2759
5.66943
6.07688
6.50784
6.97697
7.50578
8.12718
8.89157
9.88002
11.2256
13.1488
16.0141
20.4201
21.2381
21.7884
22.2303
22.5631
22.6358
22.8451
23.2638
23.8553
24.7175
26.0116
27.2979
29.0891
30.7465
32.5416
34.3322
36.2125
38.1381
40.1368
42.1981
44.3303
46.5314
48.8047
51.1502
53.5696
56.0633
58.6325
61.2775
63.9989
66.797
69.6721
72.624
75.6529
78.7582
81.9396
85.1964
88.528
91.9331
95.4108
98.9594
102.578
106.263
110.015
113.83
117.706
121.64
125.63
129.672
133.762
137.899
142.076
146.291
150.539
154.815
159.113
163.43
167.757
172.09
176.422
180.745
185.051
189.333
193.586
197.803
201.988
206.15
210.317
214.546
218.704
222.814
226.863
230.848
234.761
238.597
242.35
246.014
249.583
253.051
256.413
259.664
262.798
265.81
268.695
271.448
274.065
276.542
278.875
281.06
283.094
284.973
286.695
288.255
289.653
290.887
291.954
292.855
293.588
294.16
294.562
294.776
294.813
294.68
294.405
293.979
293.375
292.612
291.691
290.615
289.387
288.011
286.491
284.831
283.034
281.105
279.048
276.869
274.573
272.165
269.651
267.035
264.325
261.526
258.643
255.683
252.653
249.558
246.405
243.201
239.955
236.68
233.403
230.248
227.638
225.389
223.208
221.033
218.853
216.669
214.481
212.294
210.111
207.933
205.762
203.597
201.443
199.282
197.174
195.08
191.614
1.72109
0.891439
0.805209
0.840169
0.926875
1.05303
1.21626
1.41581
1.65014
1.91617
2.20964
2.5259
2.8606
3.21001
3.57124
3.94223
4.32175
4.70956
5.1065
5.51485
5.93862
6.38418
6.86077
7.38154
7.96422
8.63225
9.41424
10.3422
11.4445
12.7266
14.1351
15.5083
16.2981
16.9828
17.6506
18.324
19.0224
19.8133
20.7103
21.7191
22.8409
24.052
25.3575
26.7444
28.1584
29.6277
31.1425
32.713
34.3354
36.0129
37.7447
39.5321
41.3755
43.2756
45.2329
47.2479
49.3211
51.453
53.6438
55.8939
58.2034
60.5723
63.0006
65.488
68.0344
70.6395
73.3026
76.0233
78.8007
81.6341
84.5223
87.4642
90.4584
93.5036
96.5979
99.7397
102.927
106.157
109.428
112.738
116.083
119.461
122.869
126.303
129.759
133.235
136.726
140.227
143.736
147.247
150.756
154.26
157.754
161.238
164.708
168.168
171.619
175.067
178.501
181.895
185.248
188.553
191.806
195.001
198.135
201.201
204.195
207.112
209.948
212.698
215.357
217.921
220.386
222.748
225.003
227.147
229.177
231.089
232.881
234.549
236.091
237.505
238.788
239.938
240.954
241.835
242.58
243.189
243.661
243.993
244.171
244.215
244.125
243.907
243.559
243.074
242.457
241.711
240.838
239.841
238.722
237.486
236.135
234.672
233.101
231.426
229.651
227.781
225.819
223.77
221.638
219.429
217.147
214.797
212.384
209.912
207.388
204.817
202.203
199.555
196.881
194.203
191.577
189.141
186.855
184.622
182.405
180.193
177.985
175.784
173.592
171.413
169.252
167.112
165.002
162.938
160.934
159.082
157.424
155.798
2.78268
1.33394
1.14371
1.14689
1.22582
1.35276
1.51963
1.72311
1.96053
2.2287
2.52384
2.84202
3.17962
3.5337
3.90205
4.28328
4.67678
5.08267
5.50188
5.93626
6.38861
6.86296
7.36466
7.90067
8.47943
9.11083
9.80493
10.5699
11.4071
12.3045
13.2297
14.1311
14.9596
15.7856
16.6369
17.5244
18.4578
19.4493
20.505
21.6244
22.8065
24.0437
25.3328
26.6623
28.0316
29.4454
30.9052
32.4139
33.9725
35.5822
37.2436
38.9574
40.7243
42.545
44.42
46.3498
48.3349
50.3758
52.4729
54.6266
56.8372
59.1049
61.4297
63.8119
66.2513
68.7477
71.301
73.9107
76.5763
79.2971
82.0725
84.9014
87.7828
90.7153
93.6977
96.7282
99.8052
102.927
106.09
109.294
112.535
115.811
119.119
122.456
125.818
129.203
132.606
136.024
139.453
142.89
146.331
149.772
153.211
156.644
160.07
163.486
166.892
170.282
173.646
176.974
180.261
183.501
186.689
189.821
192.89
195.893
198.824
201.678
204.45
207.137
209.732
212.233
214.634
216.931
219.122
221.201
223.166
225.013
226.739
228.342
229.819
231.167
232.385
233.471
234.423
235.24
235.921
236.467
236.877
237.142
237.254
237.249
237.106
236.832
236.426
235.888
235.219
234.424
233.504
232.462
231.301
230.025
228.637
227.14
225.538
223.836
222.037
220.145
218.166
216.103
213.961
211.746
209.461
207.112
204.703
202.24
199.728
197.171
194.577
191.95
189.301
186.644
184.014
181.47
179.005
176.579
174.172
171.777
169.393
167.022
164.667
162.333
160.026
157.751
155.518
153.347
151.267
149.365
147.686
146.221
3.85535
1.78886
1.48987
1.4607
1.52849
1.65313
1.82104
2.02637
2.26546
2.53495
2.83143
3.15152
3.49218
3.85094
4.22604
4.6164
5.02163
5.44194
5.8781
6.33141
6.80366
7.29715
7.81463
8.35939
8.9351
9.54587
10.1958
10.8885
11.6253
12.4034
13.214
14.0463
14.8968
15.7779
16.6973
17.6582
18.6632
19.7144
20.8125
21.9561
23.1444
24.376
25.6514
26.9761
28.346
29.7617
31.2246
32.7364
34.2985
35.9121
37.5782
39.2977
41.0717
42.901
44.7868
46.7295
48.7295
50.7878
52.9049
55.0815
57.3181
59.6152
61.9733
64.3927
66.8735
69.416
72.0201
74.6857
77.4125
80.2001
83.048
85.9554
88.9214
91.9449
95.0246
98.159
101.346
104.585
107.873
111.207
114.585
118.005
121.463
124.957
128.482
132.036
135.614
139.213
142.829
146.458
150.096
153.74
157.384
161.024
164.658
168.28
171.884
175.464
179.014
182.525
185.993
189.411
192.774
196.075
199.311
202.473
205.558
208.56
211.474
214.294
217.016
219.634
222.144
224.542
226.824
228.985
231.022
232.931
234.709
236.354
237.863
239.232
240.461
241.547
242.489
243.285
243.936
244.441
244.799
244.994
245.047
244.964
244.734
244.363
243.851
243.2
242.411
241.488
240.434
239.251
237.944
236.516
234.97
233.312
231.546
229.675
227.704
225.639
223.484
221.243
218.923
216.528
214.064
211.535
208.948
206.307
203.618
200.886
198.118
195.32
192.501
189.673
186.858
184.086
181.361
178.666
175.992
173.334
170.694
168.073
165.476
162.908
160.376
157.889
155.458
153.109
150.872
148.824
147
145.361
4.88188
2.23146
1.82464
1.76264
1.8171
1.93682
2.10299
2.30743
2.54549
2.81359
3.10854
3.42737
3.76747
4.12674
4.50367
4.8974
5.3076
5.73452
6.17881
6.64151
7.12397
7.62783
8.15493
8.70734
9.28722
9.89694
10.5389
11.2153
11.9281
12.6779
13.4638
14.2843
15.1403
16.0348
16.9701
17.9478
18.9688
20.0338
21.1431
22.2967
23.4949
24.7385
26.0289
27.3676
28.7546
30.1909
31.6777
33.2163
34.8081
36.4544
38.1565
39.9157
41.7331
43.6098
45.5467
47.5452
49.6065
51.7319
53.9222
56.1785
58.5017
60.8927
63.3522
65.8808
68.4792
71.1477
73.8866
76.6961
79.5761
82.5264
85.5466
88.6361
91.7941
95.0196
98.3112
101.668
105.087
108.567
112.105
115.7
119.348
123.046
126.792
130.58
134.409
138.272
142.168
146.09
150.035
153.998
157.973
161.957
165.944
169.928
173.904
177.865
181.805
185.718
189.596
193.431
197.218
200.95
204.621
208.223
211.751
215.197
218.556
221.822
224.989
228.05
231
233.834
236.547
239.134
241.589
243.91
246.09
248.128
250.019
251.76
253.349
254.782
256.059
257.176
258.133
258.928
259.561
260.033
260.335
260.463
260.444
260.265
259.926
259.432
258.782
257.98
257.029
255.931
254.69
253.311
251.797
250.152
248.382
246.491
244.484
242.366
240.142
237.818
235.4
232.892
230.302
227.634
224.894
222.089
219.224
216.306
213.34
210.332
207.289
204.217
201.126
198.024
194.929
191.858
188.817
185.803
182.81
179.839
176.891
173.969
171.079
168.227
165.42
162.669
159.988
157.402
154.944
152.679
150.625
148.69
5.82444
2.64469
2.13466
2.03961
2.07906
2.19157
2.35341
2.55423
2.78841
3.0521
3.34219
3.65602
3.99129
4.34621
4.71947
5.11036
5.51862
5.9445
6.38863
6.85195
7.33568
7.84125
8.37023
8.92435
9.50539
10.1153
10.7559
11.4292
12.1369
12.8805
13.6611
14.4793
15.3365
16.2342
17.1736
18.156
19.1825
20.2538
21.3709
22.5345
23.7455
25.0051
26.3146
27.6752
29.0881
30.5545
32.0756
33.6531
35.2885
36.9834
38.7392
40.5578
42.4404
44.3888
46.4045
48.4891
50.6441
52.8712
55.1717
57.547
59.9985
62.5275
65.135
67.8221
70.5898
73.4388
76.3696
79.3826
82.4782
85.6562
88.9164
92.2583
95.6812
99.1841
102.766
106.424
110.158
113.964
117.841
121.786
125.795
129.864
133.991
138.171
142.4
146.672
150.984
155.329
159.703
164.1
168.513
172.938
177.366
181.793
186.21
190.61
194.986
199.329
203.633
207.889
212.09
216.228
220.295
224.285
228.189
232.001
235.713
239.318
242.81
246.181
249.425
252.537
255.51
258.338
261.018
263.542
265.909
268.112
270.148
272.015
273.708
275.226
276.565
277.725
278.704
279.501
280.116
280.549
280.784
280.843
280.727
280.433
279.961
279.316
278.498
277.512
276.361
275.048
273.579
271.957
270.188
268.277
266.229
264.05
261.745
259.322
256.785
254.141
251.397
248.558
245.633
242.626
239.544
236.396
233.186
229.922
226.611
223.258
219.872
216.458
213.026
209.584
206.145
202.722
199.323
195.947
192.597
189.272
185.976
182.714
179.492
176.316
173.196
170.142
167.172
164.309
161.585
159.053
156.715
154.436
6.65641
3.01558
2.41001
2.28238
2.30558
2.40888
2.56406
2.75878
2.98648
3.243
3.52526
3.8308
4.15759
4.50409
4.86921
5.25235
5.65337
6.07253
6.5105
6.96827
7.44702
7.94815
8.47319
9.02377
9.60127
10.2077
10.8449
11.5147
12.2189
12.959
13.7365
14.5529
15.4094
16.3075
17.2485
18.2337
19.2645
20.3422
21.468
22.6433
23.8692
25.1471
26.4788
27.8657
29.3092
30.8111
32.3732
33.9974
35.6855
37.4395
39.2613
41.1531
43.1167
45.1543
47.2678
49.4594
51.7311
54.0849
56.5227
59.0464
61.6579
64.3589
67.1508
70.0353
73.0135
76.0867
79.2556
82.5211
85.8834
89.3429
92.8994
96.5525
100.301
104.145
108.082
112.111
116.229
120.434
124.723
129.092
133.539
138.058
142.646
147.297
152.007
156.77
161.58
166.43
171.315
176.228
181.161
186.107
191.058
196.006
200.942
205.859
210.748
215.598
220.402
225.151
229.836
234.448
238.978
243.419
247.761
251.995
256.115
260.111
263.976
267.703
271.283
274.711
277.98
281.083
284.014
286.769
289.343
291.73
293.927
295.93
297.736
299.342
300.746
301.946
302.942
303.733
304.318
304.693
304.852
304.818
304.582
304.146
303.513
302.686
301.668
300.462
299.074
297.507
295.768
293.862
291.794
289.57
287.198
284.683
282.033
279.254
276.353
273.339
270.217
266.995
263.681
260.283
256.807
253.262
249.655
245.993
242.283
238.534
234.752
230.946
227.122
223.29
219.46
215.644
211.849
208.078
204.336
200.624
196.949
193.315
189.729
186.198
182.733
179.346
176.054
172.88
169.854
167.019
164.361
161.717
7.36168
3.33582
2.64447
2.48538
2.49154
2.58394
2.73046
2.91693
3.13595
3.38304
3.65511
3.94983
4.26542
4.60055
4.95436
5.32641
5.71661
6.12503
6.55268
7.00067
7.47025
7.96287
8.4802
9.02415
9.59604
10.1973
10.8295
11.4944
12.1939
12.9297
13.7033
14.5163
15.3704
16.267
17.2077
18.1941
19.2278
20.3105
21.4439
22.6298
23.8705
25.1688
26.5257
27.9426
29.4208
30.9631
32.572
34.2498
35.999
37.822
39.7212
41.6992
43.7585
45.9017
48.1313
50.4501
52.8606
55.3653
57.9668
60.6675
63.4698
66.3757
69.3875
72.5071
75.736
79.0759
82.5279
86.093
89.7718
93.5647
97.4716
101.492
105.625
109.87
114.225
118.688
123.256
127.926
132.695
137.559
142.514
147.554
152.675
157.87
163.133
168.459
173.839
179.267
184.734
190.232
195.754
201.289
206.829
212.365
217.886
223.382
228.844
234.26
239.622
244.918
250.139
255.275
260.315
265.251
270.071
274.768
279.33
283.75
288.018
292.126
296.066
299.831
303.412
306.803
309.998
312.991
315.776
318.349
320.705
322.84
324.752
326.437
327.893
329.119
330.114
330.878
331.411
331.703
331.767
331.606
331.219
330.609
329.781
328.737
327.481
326.018
324.353
322.493
320.442
318.209
315.799
313.22
310.479
307.584
304.543
301.363
298.054
294.623
291.078
287.428
283.682
279.847
275.933
271.947
267.899
263.796
259.646
255.458
251.24
246.999
242.743
238.482
234.226
229.982
225.761
221.567
217.406
213.281
209.2
205.168
201.193
197.283
193.448
189.702
186.062
182.551
179.193
176.027
173.021
170.002
7.93164
3.60099
2.83536
2.64567
2.63521
2.71535
2.8515
3.02794
3.2365
3.47241
3.73252
4.01464
4.31714
4.63871
4.97897
5.33799
5.71628
6.1148
6.53326
6.9724
7.43334
7.91743
8.42609
8.96072
9.52296
10.1145
10.7373
11.3933
12.0843
12.8122
13.5788
14.3859
15.2354
16.129
17.0687
18.0564
19.0942
20.184
21.328
22.5284
23.7873
25.1063
26.4884
27.9363
29.4537
31.0425
32.7056
34.4462
36.2671
38.1714
40.1621
42.2422
44.415
46.6835
49.0511
51.5209
54.0963
56.7803
59.5761
62.4868
65.5151
68.6639
71.9357
75.3328
78.8575
82.5114
86.296
90.2126
94.2619
98.4443
102.76
107.207
111.787
116.496
121.333
126.295
131.38
136.583
141.901
147.328
152.859
158.489
164.211
170.018
175.903
181.857
187.873
193.941
200.053
206.198
212.367
218.549
224.733
230.909
237.064
243.188
249.269
255.294
261.253
267.135
272.926
278.617
284.195
289.651
294.972
300.148
305.169
310.025
314.705
319.201
323.504
327.605
331.496
335.17
338.62
341.84
344.824
347.566
350.063
352.31
354.304
356.043
357.525
358.748
359.712
360.417
360.862
361.043
360.971
360.644
360.068
359.246
358.182
356.879
355.344
353.581
351.598
349.4
346.996
344.393
341.598
338.62
335.468
332.15
328.676
325.054
321.295
317.406
313.399
309.281
305.063
300.754
296.364
291.902
287.376
282.797
278.173
273.512
268.824
264.117
259.398
254.679
249.966
245.27
240.599
235.959
231.358
226.8
222.293
217.843
213.459
209.15
204.927
200.803
196.795
192.924
189.213
185.693
182.324
178.924
8.36522
3.80965
2.98217
2.76388
2.73726
2.80428
2.9288
3.09381
3.29057
3.51402
3.76075
4.02922
4.31853
4.62865
4.958
5.30601
5.67258
6.05758
6.46191
6.88696
7.33403
7.80446
8.29969
8.82129
9.37104
9.95098
10.5629
11.2087
11.8903
12.6096
13.3688
14.1698
15.0149
15.9061
16.8458
17.8364
18.8802
19.9797
21.1376
22.3566
23.6393
24.9888
26.4081
27.9006
29.4674
31.1127
32.8419
34.6593
36.5684
38.5725
40.6754
42.8806
45.192
47.6136
50.1492
52.8028
55.5782
58.4793
61.5098
64.6734
67.9735
71.4133
74.9959
78.7241
82.6001
86.6261
90.8037
95.1341
99.618
104.256
109.047
113.991
119.086
124.33
129.72
135.254
140.927
146.734
152.671
158.732
164.909
171.197
177.586
184.07
190.638
197.282
203.991
210.756
217.565
224.406
231.269
238.141
245.01
251.863
258.687
265.468
272.194
278.852
285.429
291.911
298.285
304.54
310.662
316.639
322.459
328.11
333.581
338.862
343.94
348.807
353.452
357.867
362.043
365.972
369.647
373.062
376.209
379.086
381.685
384.005
386.042
387.792
389.256
390.432
391.319
391.919
392.23
392.256
391.999
391.459
390.646
389.563
388.215
386.608
384.746
382.637
380.289
377.709
374.906
371.888
368.665
365.246
361.642
357.861
353.914
349.812
345.565
341.183
336.677
332.058
327.335
322.52
317.623
312.654
307.623
302.539
297.414
292.255
287.072
281.875
276.671
271.471
266.282
261.115
255.977
250.876
245.82
240.815
235.868
230.988
226.182
221.461
216.836
212.32
207.929
203.685
199.605
195.716
191.974
188.194
8.6679
3.9633
3.08663
2.84289
2.80053
2.85396
2.96594
3.11839
3.30251
3.51373
3.74964
4.0072
4.28459
4.58017
4.89373
5.22559
5.57606
5.94573
6.33589
6.74729
7.18107
7.63855
8.12123
8.63075
9.16893
9.7377
10.3391
10.9751
11.6479
12.3598
13.1131
13.9104
14.7539
15.6465
16.5908
17.5896
18.646
19.763
20.9438
22.1915
23.5099
24.9028
26.3728
27.922
29.554
31.277
33.0951
35.0133
37.0376
39.1716
41.4195
43.7856
46.2746
48.8911
51.6398
54.5252
57.552
60.7246
64.0473
67.5244
71.1597
74.9569
78.9193
83.0499
87.3511
91.825
96.4731
101.297
106.296
111.47
116.819
122.341
128.034
133.895
139.92
146.105
152.445
158.933
165.564
172.33
179.222
186.233
193.353
200.572
207.879
215.264
222.714
230.218
237.762
245.334
252.92
260.507
268.08
275.625
283.128
290.573
297.947
305.234
312.421
319.492
326.433
333.232
339.873
346.345
352.633
358.725
364.609
370.273
375.706
380.897
385.836
390.515
394.922
399.052
402.896
406.448
409.702
412.652
415.295
417.626
419.643
421.344
422.728
423.795
424.544
424.977
425.096
424.907
424.403
423.592
422.485
421.085
419.399
417.432
415.191
412.685
409.923
406.913
403.664
400.188
396.494
392.593
388.496
384.214
379.759
375.142
370.374
365.468
360.434
355.285
350.032
344.685
339.258
333.76
328.202
322.595
316.949
311.275
305.582
299.879
294.176
288.482
282.806
277.157
271.543
265.974
260.456
254.997
249.604
244.287
239.053
233.914
228.88
223.965
219.185
214.558
210.101
205.837
201.716
197.562
8.85181
4.06645
3.15246
2.88666
2.82927
2.86896
2.96861
3.11057
3.28447
3.48434
3.70597
3.94794
4.20925
4.4894
4.78842
5.10616
5.4429
5.79926
6.17615
6.57459
6.99582
7.44124
7.91244
8.4112
8.93945
9.49925
10.0928
10.7225
11.3907
12.1002
12.8536
13.6541
14.5044
15.4077
16.3673
17.3867
18.4699
19.6208
20.8425
22.1385
23.5119
24.9636
26.502
28.1341
29.8663
31.7038
33.6516
35.7156
37.902
40.216
42.6628
45.2477
47.9761
50.8535
53.8853
57.0767
60.4328
63.9587
67.6591
71.5384
75.6007
79.85
84.2893
88.9216
93.749
98.7731
103.995
109.415
115.033
120.847
126.855
133.056
139.445
146.018
152.77
159.694
166.785
174.035
181.435
188.976
196.648
204.442
212.345
220.346
228.433
236.593
244.811
253.075
261.369
269.679
277.991
286.288
294.554
302.775
310.933
319.014
327.001
334.878
342.63
350.241
357.696
364.981
372.08
378.979
385.666
392.127
398.348
404.319
410.027
415.461
420.611
425.468
430.022
434.267
438.193
441.795
445.068
448.005
450.604
452.862
454.775
456.343
457.564
458.441
458.973
459.163
459.019
458.536
457.711
456.561
455.092
453.312
451.224
448.838
446.161
443.204
439.975
436.485
432.745
428.766
424.559
420.137
415.511
410.694
405.698
400.536
395.221
389.766
384.182
378.482
372.679
366.785
360.812
354.771
348.675
342.534
336.36
330.162
323.952
317.739
311.532
305.341
299.175
293.043
286.954
280.917
274.938
269.027
263.191
257.438
251.779
246.223
240.782
235.469
230.298
225.288
220.452
215.812
211.316
206.798
8.91189
4.1189
3.18209
2.89883
2.82886
2.85851
2.94788
3.07705
3.23665
3.42172
3.62944
3.85801
4.1062
4.37344
4.65957
4.96472
5.28931
5.63403
5.99981
6.38782
6.7994
7.23613
7.69981
8.19244
8.71626
9.27362
9.86703
10.4992
11.173
11.8916
12.6585
13.478
14.353
15.2872
16.2841
17.3476
18.4804
19.6847
20.9682
22.337
23.7972
25.3564
27.0196
28.7936
30.6852
32.7008
34.8469
37.1307
39.5588
42.1371
44.8724
47.7713
50.8401
54.0851
57.5119
61.1262
64.9333
68.9382
73.1457
77.56
82.1849
87.0237
92.0789
97.3525
102.846
108.559
114.492
120.643
127.011
133.593
140.385
147.382
154.579
161.97
169.548
177.304
185.229
193.315
201.55
209.924
218.425
227.04
235.756
244.56
253.437
262.373
271.352
280.358
289.377
298.392
307.385
316.342
325.244
334.074
342.817
351.454
359.97
368.346
376.568
384.619
392.482
400.144
407.589
414.802
421.769
428.478
434.916
441.07
446.928
452.481
457.717
462.628
467.204
471.439
475.325
478.857
482.029
484.837
487.277
489.347
491.046
492.374
493.328
493.914
494.132
493.99
493.488
492.614
491.389
489.82
487.915
485.681
483.124
480.254
477.08
473.613
469.865
465.846
461.568
457.044
452.287
447.308
442.122
436.741
431.18
425.452
419.57
413.549
407.401
401.14
394.778
388.329
381.806
375.22
368.585
361.911
355.21
348.493
341.77
335.052
328.349
321.669
315.022
308.417
301.862
295.367
288.94
282.588
276.319
270.143
264.068
258.106
252.267
246.564
241.011
235.624
230.416
225.407
220.546
215.68
8.89385
4.12924
3.18198
2.88927
2.80968
2.82641
2.90221
3.0186
3.16614
3.33948
3.53558
3.75267
3.98976
4.24637
4.52245
4.81831
5.13456
5.47208
5.83199
6.21563
6.62458
7.0607
7.52613
8.02337
8.55544
9.12546
9.73596
10.3901
11.0914
11.8433
12.6489
13.5098
14.4318
15.421
16.4831
17.6238
18.8496
20.1674
21.5828
23.1026
24.7345
26.4865
28.3659
30.3803
32.5373
34.8448
37.3105
39.9423
42.7478
45.7347
48.9107
52.2838
55.8615
59.6497
63.6538
67.8785
72.3286
77.008
81.9205
87.069
92.4558
98.0823
103.949
110.057
116.404
122.988
129.808
136.858
144.135
151.633
159.346
167.266
175.387
183.697
192.189
200.852
209.674
218.643
227.748
236.974
246.309
255.737
265.245
274.817
284.438
294.09
303.759
313.427
323.077
332.693
342.256
351.751
361.159
370.463
379.645
388.689
397.577
406.292
414.818
423.14
431.24
439.104
446.717
454.066
461.136
467.914
474.388
480.547
486.379
491.874
497.022
501.816
506.246
510.306
513.99
517.293
520.209
522.737
524.872
526.615
527.962
528.919
529.478
529.653
529.45
528.859
527.878
526.525
524.806
522.73
520.306
517.539
514.44
511.019
507.287
503.255
498.936
494.341
489.484
484.379
479.037
473.475
467.704
461.741
455.599
449.292
442.835
436.243
429.528
422.706
415.79
408.792
401.727
394.607
387.444
380.251
373.038
365.819
358.602
351.398
344.217
337.069
329.962
322.906
315.908
308.978
302.124
295.353
288.674
282.095
275.626
269.277
263.059
256.984
251.066
245.319
239.754
234.392
229.181
223.992
8.83575
4.11935
3.16576
2.86048
2.76864
2.77439
2.83975
2.94595
3.08358
3.24755
3.43501
3.64436
3.87478
4.12598
4.39816
4.6919
5.00827
5.34901
5.71546
6.10913
6.53205
6.98654
7.47516
8.00038
8.56409
9.16832
9.81902
10.5212
11.2799
12.1002
12.988
13.9503
14.9928
16.122
17.345
18.6698
20.1048
21.6587
23.34
25.1573
27.1201
29.2376
31.519
33.9735
36.61
39.4374
42.4638
45.6962
49.1412
52.8089
56.7084
60.849
65.2423
69.8895
74.7918
79.9511
85.369
91.0466
96.9841
103.181
109.637
116.348
123.313
130.526
137.984
145.681
153.609
161.762
170.131
178.709
187.484
196.447
205.587
214.892
224.351
233.95
243.677
253.517
263.457
273.482
283.577
293.728
303.917
314.131
324.351
334.563
344.75
354.894
364.979
374.988
384.904
394.71
404.39
413.925
423.299
432.497
441.5
450.294
458.862
467.189
475.26
483.061
490.577
497.797
504.706
511.293
517.547
523.457
529.012
534.203
539.022
543.462
547.515
551.175
554.438
557.299
559.755
561.803
563.441
564.671
565.489
565.908
565.903
565.539
564.741
563.551
561.973
560.016
557.685
554.993
551.946
548.553
544.824
540.772
536.407
531.743
526.792
521.568
516.084
510.355
504.395
498.218
491.838
485.272
478.533
471.638
464.6
457.434
450.155
442.777
435.314
427.779
420.186
412.548
404.876
397.185
389.484
381.785
374.099
366.436
358.805
351.216
343.678
336.199
328.787
321.452
314.2
307.039
299.978
293.025
286.188
279.479
272.907
266.484
260.222
254.136
248.235
242.54
237.001
231.516
8.71694
4.08581
3.12938
2.8167
2.71818
2.71741
2.77682
2.87807
3.01204
3.174
3.36161
3.57387
3.80995
4.06989
4.35423
4.66385
4.99965
5.3619
5.75277
6.17603
6.6351
7.13366
7.67575
8.26594
8.90981
9.61353
10.3823
11.2229
12.1427
13.1497
14.2527
15.4612
16.7846
18.2326
19.8155
21.5443
23.4303
25.4851
27.7199
30.1462
32.7749
35.6168
38.6821
41.9806
45.5214
49.3128
53.3615
57.6736
62.255
67.1115
72.2489
77.6743
83.3922
89.3953
95.6793
102.24
109.072
116.172
123.532
131.147
139.008
147.109
155.44
163.993
172.759
181.726
190.885
200.224
209.733
219.4
229.213
239.159
249.227
259.403
269.675
280.028
290.451
300.928
311.447
321.992
332.551
343.107
353.648
364.158
374.622
385.025
395.352
405.588
415.717
425.724
435.593
445.31
454.858
464.223
473.389
482.341
491.064
499.544
507.767
515.719
523.386
530.756
537.815
544.552
550.956
557.017
562.725
568.069
573.041
577.632
581.837
585.649
589.061
592.068
594.669
596.858
598.632
599.995
600.935
601.472
601.577
601.309
600.611
599.505
597.999
596.1
593.816
591.153
588.121
584.732
580.992
576.91
572.498
567.769
562.735
557.41
551.807
545.94
539.823
533.47
526.897
520.118
513.147
506.001
498.694
491.242
483.659
475.96
468.161
460.274
452.313
444.293
436.226
428.126
420.003
411.871
403.741
395.623
387.528
379.466
371.446
363.477
355.567
347.724
339.957
332.273
324.68
317.184
309.795
302.519
295.365
288.343
281.463
274.736
268.174
261.789
255.59
249.6
243.767
238.029
8.59661
4.03284
3.08435
2.7731
2.67501
2.67562
2.73888
2.84638
2.98914
3.16253
3.36378
3.59079
3.845
4.12767
4.44046
4.78555
5.16579
5.5852
6.04767
6.55767
7.12076
7.74335
8.43275
9.19713
10.0456
10.9882
12.0347
13.1969
14.4869
15.9181
17.504
19.2589
21.1974
23.334
25.6838
28.2613
31.0804
34.154
37.4946
41.114
45.0223
49.2272
53.7348
58.5504
63.6787
69.1216
74.8776
80.9448
87.3231
94.0101
101.001
108.307
115.885
123.727
131.822
140.158
148.722
157.502
166.485
175.659
185.011
194.53
204.202
214.017
223.962
234.025
244.196
254.462
264.813
275.237
285.723
296.261
306.838
317.445
328.07
338.702
349.329
359.941
370.527
381.074
391.572
402.009
412.373
422.652
432.833
442.905
452.856
462.671
472.339
481.846
491.18
500.328
509.276
518.012
526.521
534.792
542.812
550.567
558.046
565.236
572.126
578.704
584.96
590.882
596.463
601.693
606.563
611.064