/*--------------------------------*- C++ -*----------------------------------*\
  =========                 |
  \\      /  F ield         | OpenFOAM: The Open Source CFD Toolbox
   \\    /   O peration     | Website:  https://openfoam.org
    \\  /    A nd           | Version:  8
     \\/     M anipulation  |
\*---------------------------------------------------------------------------*/
FoamFile
{
    version     2.0;
    format      ascii;
    class       volScalarField;
    location    "287";
    object      k;
}
// * * * * * * * * * * * * * * * * * * * * * * * * * * * * * * * * * * * * * //

dimensions      [0 2 -2 0 0 0 0];

internalField   nonuniform List<scalar> 
12225
(
0.362828
0.34399
0.327753
0.309809
0.295412
0.283467
0.275529
0.270278
0.270336
0.271886
0.276044
0.280717
0.28984
0.295631
0.306778
0.312676
0.325686
0.323699
0.440271
0.468738
0.461616
0.44837
0.450343
0.458314
0.474575
0.498484
0.524413
0.55206
0.58073
0.606105
0.633775
0.653792
0.679642
0.692906
0.718009
0.72415
0.390407
0.41786
0.420244
0.41683
0.411634
0.407802
0.408019
0.410035
0.414564
0.421381
0.430716
0.439704
0.451145
0.461136
0.472781
0.483487
0.493441
0.505748
0.377043
0.387169
0.391466
0.391343
0.39026
0.387882
0.385662
0.384078
0.382883
0.382896
0.383354
0.384377
0.386267
0.388458
0.390892
0.394221
0.396511
0.40092
0.374434
0.376094
0.378427
0.378665
0.378275
0.3772
0.375489
0.373737
0.37201
0.370455
0.369255
0.368109
0.367378
0.366802
0.366439
0.366326
0.366343
0.366685
0.373779
0.372704
0.372659
0.372365
0.371773
0.370818
0.369554
0.368083
0.366572
0.364977
0.363528
0.362064
0.360755
0.359528
0.358397
0.357425
0.356436
0.355778
0.373775
0.37174
0.370388
0.369284
0.368235
0.367114
0.365915
0.364587
0.363239
0.361808
0.360423
0.359024
0.357679
0.356384
0.355122
0.353968
0.352795
0.351803
0.373818
0.371559
0.369635
0.367976
0.366501
0.365108
0.363776
0.36243
0.361108
0.359767
0.358451
0.357145
0.355865
0.354624
0.353403
0.352252
0.351101
0.350054
0.373832
0.371553
0.369449
0.367525
0.365777
0.364154
0.362645
0.361199
0.359818
0.358474
0.357171
0.355904
0.354669
0.353477
0.35231
0.351198
0.350099
0.349075
0.373831
0.37156
0.369418
0.367405
0.365529
0.363773
0.362133
0.360585
0.359122
0.357728
0.356395
0.355119
0.353889
0.352712
0.351571
0.350483
0.349422
0.348422
0.373829
0.37156
0.369413
0.367378
0.365458
0.363645
0.361937
0.360324
0.358799
0.357353
0.35598
0.354673
0.353425
0.352237
0.351096
0.35001
0.348961
0.34797
0.373828
0.371558
0.369409
0.36737
0.365439
0.363609
0.361876
0.360234
0.358678
0.357202
0.3558
0.354469
0.353201
0.351995
0.350843
0.349748
0.348696
0.347702
0.373827
0.371556
0.369405
0.367365
0.36543
0.363593
0.361851
0.360197
0.358626
0.357134
0.355716
0.354368
0.353085
0.351865
0.350701
0.349595
0.348536
0.347532
0.373826
0.371555
0.369401
0.367359
0.365422
0.363583
0.361837
0.360178
0.3586
0.357101
0.355674
0.354317
0.353025
0.351795
0.350622
0.349506
0.34844
0.347427
0.373826
0.371553
0.369398
0.367355
0.365416
0.363575
0.361826
0.360164
0.358584
0.357081
0.355651
0.35429
0.352993
0.351758
0.35058
0.349458
0.348388
0.347368
0.373826
0.371552
0.369396
0.367351
0.36541
0.363567
0.361817
0.360153
0.358571
0.357067
0.355634
0.35427
0.352971
0.351734
0.350554
0.349429
0.348356
0.347333
0.373825
0.371551
0.369394
0.367348
0.365406
0.363562
0.36181
0.360145
0.358561
0.357055
0.355621
0.354256
0.352955
0.351716
0.350534
0.349408
0.348333
0.347308
0.373825
0.371551
0.369393
0.367346
0.365403
0.363558
0.361805
0.360139
0.358554
0.357047
0.355612
0.354245
0.352943
0.351703
0.35052
0.349392
0.348316
0.347289
0.373825
0.37155
0.369393
0.367345
0.365402
0.363557
0.361804
0.360137
0.358552
0.357043
0.355607
0.35424
0.352938
0.351696
0.350513
0.349384
0.348307
0.34728
0.373825
0.371551
0.369393
0.367347
0.365404
0.363559
0.361806
0.360139
0.358554
0.357046
0.355611
0.354244
0.352941
0.3517
0.350516
0.349388
0.348311
0.347284
0.373825
0.371551
0.369395
0.367349
0.365407
0.363563
0.361811
0.360145
0.358562
0.357055
0.355621
0.354255
0.352954
0.351715
0.350533
0.349406
0.348332
0.347307
0.373826
0.371552
0.369397
0.367352
0.365412
0.363571
0.361822
0.360161
0.358583
0.357083
0.355656
0.354298
0.353006
0.351774
0.350602
0.349482
0.348416
0.347397
0.373826
0.371554
0.369399
0.367359
0.365428
0.363602
0.361875
0.36024
0.35869
0.35722
0.355823
0.354493
0.353226
0.352018
0.350865
0.349762
0.34871
0.3477
0.373828
0.371551
0.369412
0.367417
0.365556
0.363819
0.362189
0.360651
0.359189
0.357793
0.356456
0.355171
0.353935
0.352745
0.3516
0.350495
0.349435
0.348409
0.373823
0.371554
0.369604
0.367893
0.366339
0.364892
0.363495
0.362122
0.360761
0.359413
0.35808
0.356769
0.355488
0.354237
0.353028
0.351855
0.350733
0.349644
0.373781
0.37199
0.371113
0.370265
0.36936
0.368311
0.367048
0.365629
0.36412
0.362575
0.36103
0.359522
0.358073
0.356682
0.355381
0.354141
0.353009
0.351923
0.374297
0.375564
0.377778
0.377858
0.377291
0.375885
0.373835
0.371641
0.369505
0.367482
0.365664
0.364084
0.36271
0.361535
0.36061
0.359818
0.359289
0.358801
0.378732
0.394393
0.398293
0.396565
0.392558
0.387608
0.383641
0.380455
0.378266
0.376852
0.376497
0.376751
0.3774
0.378699
0.380445
0.382425
0.38483
0.387141
0.408344
0.427539
0.422424
0.411051
0.402227
0.397925
0.398558
0.401119
0.405989
0.413043
0.421001
0.429835
0.438843
0.448201
0.457317
0.466565
0.475334
0.484195
0.366033
0.353412
0.341988
0.33021
0.318982
0.308382
0.299409
0.291674
0.285403
0.280334
0.276682
0.273868
0.272311
0.271186
0.271177
0.271524
0.272158
0.273389
0.000540389
0.00317034
0.00593305
0.00837215
0.0107069
0.0133387
0.0163995
0.0200553
0.024396
0.0293962
0.0349525
0.0409254
0.04718
0.0535964
0.0600794
0.0665506
0.0729517
0.0792364
0.0853702
0.0913248
0.0970712
0.102577
0.107788
0.112636
0.11701
0.120772
0.123721
0.125607
0.126072
0.124665
0.120711
0.113159
0.116141
0.120314
0.124762
0.128697
0.133063
0.137356
0.139629
0.14331
0.146249
0.147137
0.149075
0.159055
0.16482
0.173195
0.180566
0.188746
0.19679
0.205159
0.213613
0.222269
0.231066
0.240032
0.249152
0.258433
0.267869
0.277463
0.28721
0.297111
0.307163
0.317364
0.327709
0.338198
0.348824
0.359585
0.370474
0.381488
0.392618
0.403861
0.415207
0.426653
0.438186
0.449803
0.461491
0.473245
0.485051
0.496903
0.508788
0.520699
0.53262
0.544546
0.556459
0.568352
0.580208
0.592018
0.603765
0.615437
0.627018
0.638492
0.649841
0.661044
0.672079
0.682923
0.693554
0.703952
0.714113
0.724063
0.733891
0.743441
0.752786
0.761883
0.770741
0.77934
0.787673
0.795728
0.803496
0.810968
0.818134
0.824986
0.831513
0.837711
0.843568
0.849081
0.854241
0.859043
0.863479
0.867547
0.871241
0.874559
0.877496
0.880048
0.882212
0.883987
0.885371
0.886366
0.886966
0.887166
0.887027
0.886538
0.885594
0.884227
0.882451
0.880388
0.878012
0.875204
0.872061
0.868565
0.86473
0.860563
0.856073
0.85127
0.846166
0.840764
0.835076
0.829111
0.822881
0.816396
0.809667
0.802708
0.795528
0.788141
0.78056
0.772795
0.764861
0.756769
0.748534
0.740169
0.731689
0.723113
0.714469
0.705819
0.697562
0.69199
0.68807
0.684259
0.680418
0.676534
0.672613
0.668658
0.664674
0.660662
0.656615
0.652518
0.648337
0.64399
0.639322
0.63389
0.62681
0.600884
0.0027875
0.0116487
0.0177062
0.0222095
0.0261749
0.0300512
0.0341945
0.0388093
0.0439799
0.0496902
0.0558622
0.0623901
0.0691663
0.0760938
0.0830925
0.0900977
0.0970604
0.103944
0.110722
0.117374
0.123881
0.13022
0.136352
0.142221
0.147742
0.15281
0.157294
0.161073
0.164097
0.166458
0.168564
0.171516
0.177904
0.185324
0.193313
0.201723
0.210568
0.219684
0.229473
0.240979
0.253537
0.266948
0.283399
0.296382
0.308282
0.321022
0.334089
0.347606
0.361447
0.375632
0.390132
0.404954
0.42009
0.435544
0.451313
0.467401
0.483806
0.500531
0.517574
0.534937
0.552618
0.570616
0.588928
0.607554
0.626488
0.645728
0.665267
0.685101
0.705221
0.725622
0.746293
0.767227
0.788411
0.809837
0.83149
0.853358
0.875427
0.897683
0.920109
0.942689
0.965407
0.988243
1.01118
1.0342
1.05727
1.08038
1.10351
1.12663
1.14972
1.17275
1.1957
1.21853
1.24121
1.2637
1.28597
1.30796
1.32962
1.35087
1.37165
1.39216
1.41235
1.43222
1.45173
1.47087
1.48962
1.50795
1.52585
1.54328
1.56024
1.5767
1.59264
1.60805
1.6229
1.63719
1.65088
1.66397
1.67644
1.68828
1.69948
1.71002
1.71989
1.72908
1.73758
1.74538
1.75247
1.75886
1.76454
1.7695
1.77376
1.77731
1.78014
1.78215
1.7833
1.78385
1.78386
1.78304
1.78153
1.77932
1.77642
1.77284
1.7686
1.76371
1.75818
1.75202
1.74525
1.73789
1.72994
1.72144
1.71239
1.70282
1.69274
1.68219
1.67116
1.6597
1.64782
1.63554
1.62289
1.60989
1.59657
1.58295
1.56906
1.55496
1.54077
1.52694
1.51328
1.49951
1.48562
1.47163
1.45756
1.44344
1.42928
1.41509
1.40088
1.38666
1.37239
1.35806
1.34347
1.32863
1.31217
1.27551
0.00597946
0.0201606
0.0282629
0.0342725
0.0395917
0.044767
0.050103
0.0557765
0.0618672
0.0683784
0.0752619
0.0824433
0.0898425
0.0973853
0.10501
0.112667
0.120324
0.127956
0.135553
0.143113
0.150637
0.158129
0.165588
0.173005
0.18036
0.187632
0.194809
0.201915
0.209048
0.216414
0.224349
0.233298
0.243611
0.25482
0.266728
0.279245
0.292341
0.306047
0.320497
0.335689
0.351534
0.368111
0.384907
0.401177
0.417517
0.434264
0.451418
0.468995
0.486976
0.505356
0.524127
0.543286
0.562831
0.582761
0.603076
0.623776
0.644861
0.666331
0.688185
0.710421
0.733038
0.756033
0.779403
0.803145
0.827253
0.851721
0.876542
0.90171
0.927215
0.953047
0.979196
1.00565
1.0324
1.05942
1.08671
1.11424
1.14201
1.16998
1.19815
1.22649
1.25499
1.28361
1.31234
1.34115
1.37002
1.39892
1.42782
1.4567
1.48552
1.51427
1.54289
1.57138
1.59968
1.62777
1.65561
1.68318
1.71043
1.73736
1.76394
1.79016
1.81599
1.8414
1.86637
1.89086
1.91484
1.93829
1.96118
1.98348
2.00516
2.0262
2.04657
2.06625
2.08522
2.10345
2.12092
2.13762
2.15351
2.16859
2.18284
2.19624
2.20878
2.22045
2.23122
2.2411
2.25007
2.25812
2.26526
2.27148
2.27678
2.28116
2.28459
2.28706
2.28844
2.28899
2.28876
2.28755
2.28544
2.28243
2.27853
2.27377
2.26815
2.2617
2.25443
2.24635
2.2375
2.22788
2.21752
2.20644
2.19467
2.18224
2.16915
2.15545
2.14117
2.12631
2.11093
2.09504
2.07868
2.06187
2.04465
2.02706
2.00912
1.9909
1.97252
1.95419
1.93586
1.9174
1.8988
1.88008
1.86128
1.84241
1.82352
1.80462
1.78574
1.7669
1.74812
1.72942
1.71074
1.69221
1.67256
1.64069
0.00967093
0.0282579
0.0382748
0.0455787
0.0519454
0.058035
0.064185
0.0705835
0.0773225
0.0844235
0.0918605
0.0995807
0.107522
0.115627
0.123846
0.132142
0.140492
0.148888
0.157331
0.165834
0.17442
0.183114
0.191946
0.200941
0.210123
0.219511
0.229133
0.239032
0.249285
0.260011
0.271359
0.283467
0.296394
0.310054
0.324385
0.339345
0.354908
0.37107
0.387847
0.405233
0.423182
0.441617
0.460366
0.479337
0.498613
0.518269
0.538334
0.558828
0.579757
0.601125
0.62293
0.645175
0.667859
0.690983
0.714548
0.738554
0.763002
0.787893
0.813225
0.838997
0.865209
0.891858
0.91894
0.946451
0.974386
1.00274
1.0315
1.06067
1.09023
1.12017
1.15048
1.18115
1.21216
1.2435
1.27515
1.30709
1.3393
1.37176
1.40445
1.43735
1.47043
1.50367
1.53704
1.5705
1.60404
1.63762
1.67122
1.70479
1.73831
1.77174
1.80505
1.83821
1.87117
1.90392
1.9364
1.9686
2.00047
2.03199
2.06313
2.09383
2.12409
2.15384
2.18307
2.21174
2.2398
2.26723
2.29399
2.32005
2.34538
2.36995
2.39372
2.41668
2.43878
2.46001
2.48033
2.49974
2.51819
2.53568
2.55217
2.56767
2.58214
2.59557
2.60795
2.61926
2.6295
2.63866
2.64674
2.65373
2.65962
2.66443
2.66812
2.67068
2.67199
2.67235
2.67168
2.66992
2.66708
2.6632
2.65827
2.65233
2.64539
2.63747
2.62859
2.61877
2.60804
2.59642
2.58394
2.57062
2.5565
2.54159
2.52595
2.50958
2.49253
2.47483
2.45652
2.43762
2.41817
2.39822
2.37779
2.35692
2.33567
2.3141
2.29229
2.2704
2.24841
2.22627
2.20399
2.18158
2.15908
2.13653
2.11397
2.09143
2.06896
2.04661
2.02442
2.00248
1.98084
1.95967
1.9379
1.90856
0.0134013
0.035861
0.0476417
0.0561354
0.0634292
0.070283
0.0770786
0.0840288
0.091247
0.0987781
0.106621
0.114745
0.123107
0.131665
0.140382
0.14923
0.158198
0.167282
0.176496
0.18586
0.195405
0.205171
0.215199
0.225528
0.236197
0.247242
0.258693
0.270587
0.282967
0.29589
0.309412
0.323583
0.338421
0.353913
0.37004
0.38678
0.404119
0.422048
0.440563
0.459649
0.479279
0.499407
0.519983
0.540982
0.562409
0.584278
0.606603
0.629395
0.652665
0.676418
0.700659
0.725391
0.750618
0.776341
0.802565
0.829289
0.856517
0.884248
0.912484
0.941225
0.970469
1.00022
1.03046
1.0612
1.09243
1.12415
1.15634
1.189
1.22212
1.25568
1.28968
1.3241
1.35892
1.39413
1.42971
1.46564
1.50189
1.53844
1.57527
1.61235
1.64965
1.68715
1.72481
1.7626
1.80049
1.83844
1.87642
1.91439
1.95231
1.99015
2.02788
2.06544
2.10281
2.13993
2.17678
2.21331
2.24949
2.28526
2.3206
2.35545
2.38977
2.42353
2.45668
2.48918
2.521
2.55208
2.58239
2.61189
2.64056
2.66834
2.69521
2.72113
2.74608
2.77001
2.79291
2.81474
2.83549
2.85511
2.87361
2.89094
2.9071
2.92207
2.93583
2.94837
2.95968
2.96975
2.97858
2.98616
2.99249
2.99757
3.00139
3.0039
3.00504
3.00511
3.00394
3.00154
2.99793
2.99312
2.98714
2.98001
2.97174
2.96237
2.95191
2.94039
2.92785
2.9143
2.89979
2.88433
2.86797
2.85074
2.83267
2.8138
2.79417
2.77381
2.75277
2.73107
2.70877
2.68591
2.66252
2.63865
2.61436
2.5897
2.56476
2.53964
2.51435
2.48891
2.4633
2.43757
2.41175
2.38589
2.36004
2.33426
2.30859
2.28312
2.25793
2.23315
2.2089
2.18539
2.16169
2.13296
0.0169718
0.042783
0.0561498
0.0657276
0.0738561
0.0813791
0.0887207
0.0961195
0.103712
0.111566
0.119705
0.128122
0.136794
0.145693
0.154796
0.164085
0.173555
0.18321
0.193065
0.203148
0.21349
0.224135
0.235123
0.2465
0.258306
0.270578
0.283346
0.296639
0.310481
0.3249
0.339919
0.355557
0.371823
0.388717
0.406231
0.424357
0.443085
0.462409
0.48232
0.502809
0.523862
0.545461
0.567586
0.590223
0.61337
0.637028
0.661201
0.685897
0.711124
0.736888
0.763197
0.790055
0.817469
0.845442
0.873979
0.903083
0.932758
0.963005
0.993828
1.02523
1.0572
1.08975
1.12288
1.15657
1.19083
1.22565
1.26103
1.29695
1.3334
1.37038
1.40786
1.44584
1.48429
1.5232
1.56255
1.60231
1.64245
1.68296
1.72381
1.76495
1.80637
1.84803
1.88989
1.93191
1.97407
2.01632
2.05862
2.10093
2.1432
2.1854
2.22748
2.26939
2.31109
2.35254
2.39368
2.43447
2.47486
2.5148
2.55424
2.59313
2.63143
2.6691
2.70607
2.74231
2.77776
2.81239
2.84615
2.879
2.91089
2.94178
2.97163
3.00042
3.02809
3.05462
3.07998
3.10413
3.12705
3.1487
3.16908
3.18814
3.20588
3.22227
3.2373
3.25096
3.26322
3.2741
3.28357
3.29164
3.29831
3.30357
3.30743
3.3098
3.31073
3.31038
3.30865
3.30556
3.30111
3.29533
3.28825
3.27988
3.27026
3.25941
3.24735
3.23413
3.21977
3.2043
3.18777
3.1702
3.15164
3.13211
3.11167
3.09036
3.06821
3.04526
3.02157
2.99717
2.97211
2.94644
2.9202
2.89345
2.86623
2.83861
2.81067
2.78249
2.75409
2.72551
2.69676
2.66788
2.63893
2.60995
2.58101
2.55216
2.52349
2.49509
2.46708
2.43963
2.4129
2.38711
2.36142
2.33206
0.0202506
0.0489024
0.063652
0.0741874
0.083054
0.0911632
0.0989739
0.106747
0.114639
0.12274
0.131095
0.139717
0.148604
0.157745
0.167128
0.176745
0.186597
0.196694
0.207053
0.217702
0.228673
0.240006
0.251741
0.263918
0.276577
0.289751
0.303469
0.317753
0.332622
0.348091
0.364172
0.380875
0.398204
0.416161
0.434743
0.453946
0.473767
0.494201
0.515244
0.536891
0.559136
0.581971
0.605389
0.629385
0.653956
0.679102
0.704828
0.731139
0.758044
0.785548
0.81366
0.842388
0.871738
0.901717
0.932332
0.963587
0.995488
1.02804
1.06124
1.09511
1.12962
1.1648
1.20064
1.23713
1.27427
1.31207
1.3505
1.38956
1.42924
1.46953
1.51041
1.55186
1.59388
1.63643
1.67949
1.72303
1.76704
1.81148
1.85631
1.9015
1.94703
1.99284
2.0389
2.08517
2.13161
2.17816
2.22479
2.27145
2.31809
2.36465
2.4111
2.45737
2.50341
2.54917
2.5946
2.63964
2.68423
2.72832
2.77186
2.81478
2.85704
2.89857
2.93934
2.97928
3.01835
3.05649
3.09365
3.12979
3.16485
3.1988
3.23159
3.26317
3.29351
3.32258
3.35032
3.37672
3.40174
3.42535
3.44752
3.46824
3.48747
3.5052
3.52142
3.5361
3.54925
3.56084
3.57087
3.57935
3.58628
3.59164
3.59545
3.59761
3.59826
3.59743
3.59507
3.59121
3.58587
3.57907
3.57083
3.56118
3.55016
3.53779
3.52412
3.50916
3.49296
3.47556
3.457
3.43732
3.41655
3.39475
3.37196
3.34822
3.32358
3.29809
3.27179
3.24474
3.21698
3.18857
3.15955
3.12998
3.09992
3.06942
3.03856
3.00741
2.97602
2.94442
2.91265
2.88075
2.84878
2.8168
2.78488
2.75309
2.72153
2.69032
2.65959
2.62955
2.60038
2.57227
2.54445
2.51365
0.0231452
0.0541434
0.0700582
0.0814088
0.0909066
0.0995167
0.107725
0.115809
0.123941
0.132229
0.140737
0.149497
0.158524
0.167822
0.177392
0.187235
0.19736
0.207778
0.21851
0.229582
0.241024
0.252873
0.265164
0.277934
0.291216
0.305042
0.319437
0.33442
0.350009
0.366215
0.383048
0.400513
0.418616
0.437359
0.456741
0.476765
0.497428
0.518731
0.540673
0.563254
0.586472
0.610328
0.634819
0.659946
0.68571
0.712115
0.739166
0.766869
0.795234
0.824268
0.853982
0.884384
0.915483
0.947288
0.979809
1.01305
1.04702
1.08173
1.11718
1.15337
1.19032
1.22801
1.26646
1.30565
1.3456
1.38628
1.4277
1.46985
1.51271
1.55627
1.60052
1.64543
1.69098
1.73716
1.78393
1.83127
1.87914
1.92752
1.97636
2.02562
2.07528
2.12527
2.17556
2.2261
2.27685
2.32774
2.37873
2.42976
2.48079
2.53174
2.58257
2.63321
2.68361
2.73369
2.78341
2.8327
2.88149
2.92972
2.97733
3.02426
3.07045
3.11584
3.16037
3.20398
3.24662
3.28822
3.32874
3.36811
3.4063
3.44324
3.47889
3.51321
3.54615
3.57766
3.60772
3.63629
3.66332
3.6888
3.71269
3.73497
3.75561
3.77459
3.79191
3.80753
3.82146
3.83367
3.84418
3.85298
3.86007
3.86545
3.86914
3.87103
3.8713
3.86992
3.86687
3.86218
3.85588
3.84799
3.83855
3.82758
3.81511
3.8012
3.78586
3.76915
3.7511
3.73175
3.71116
3.68936
3.6664
3.64233
3.61721
3.59107
3.56398
3.53597
3.50712
3.47746
3.44706
3.41596
3.38422
3.35191
3.31907
3.28576
3.25207
3.21805
3.18376
3.14925
3.11456
3.07974
3.04486
3.00998
2.97519
2.94057
2.90622
2.87228
2.83891
2.80631
2.7747
2.74424
2.71418
2.68177
0.0255992
0.0584783
0.0753351
0.0873494
0.0973635
0.106384
0.114916
0.123249
0.131568
0.139993
0.148603
0.157446
0.166552
0.175939
0.185618
0.195601
0.2059
0.216532
0.227517
0.23888
0.250651
0.26286
0.275539
0.288721
0.302435
0.316709
0.331566
0.347024
0.363099
0.379804
0.397148
0.415138
0.433781
0.453081
0.473043
0.493668
0.514962
0.536927
0.559567
0.582885
0.606884
0.63157
0.656947
0.683019
0.709791
0.737271
0.765466
0.794385
0.82404
0.854441
0.885599
0.917526
0.950234
0.983733
1.01803
1.05315
1.08908
1.12585
1.16345
1.2019
1.24119
1.28134
1.32234
1.36419
1.40689
1.45044
1.49482
1.54004
1.58606
1.63289
1.68051
1.72888
1.77799
1.82781
1.87831
1.92947
1.98123
2.03357
2.08644
2.13981
2.19361
2.24781
2.30236
2.35719
2.41226
2.46751
2.52287
2.57828
2.63369
2.68903
2.74424
2.79923
2.85396
2.90835
2.96232
3.01582
3.06876
3.12108
3.17272
3.2236
3.27366
3.32283
3.37104
3.41824
3.46436
3.50934
3.55312
3.59563
3.63683
3.67667
3.71507
3.75201
3.78743
3.82129
3.85355
3.88416
3.9131
3.94033
3.96581
3.98953
4.01146
4.03158
4.04987
4.06632
4.08092
4.09366
4.10454
4.11355
4.12071
4.12601
4.12946
4.13103
4.13083
4.12881
4.125
4.11942
4.1121
4.10307
4.09237
4.08003
4.06609
4.05059
4.03358
4.01509
3.99518
3.97389
3.95126
3.92736
3.90223
3.87593
3.8485
3.82001
3.79051
3.76005
3.7287
3.6965
3.66352
3.62982
3.59545
3.56047
3.52494
3.48893
3.4525
3.41571
3.37864
3.34133
3.30384
3.26622
3.22855
3.19089
3.15333
3.11598
3.07894
3.04236
3.00641
2.97131
2.93726
2.90441
2.87206
2.83791
0.0275827
0.0619148
0.0794972
0.0920228
0.102435
0.111773
0.120553
0.129073
0.137526
0.146041
0.154709
0.163589
0.172723
0.182142
0.191864
0.20191
0.212297
0.223045
0.234177
0.245716
0.257689
0.270122
0.283045
0.296486
0.31047
0.325022
0.340164
0.355913
0.372288
0.389301
0.406964
0.425287
0.44428
0.46395
0.484304
0.505351
0.527097
0.54955
0.572719
0.59661
0.621231
0.646593
0.672702
0.699569
0.727203
0.755615
0.784816
0.814819
0.845637
0.877285
0.909776
0.943125
0.977345
1.01245
1.04845
1.08537
1.1232
1.16197
1.20168
1.24234
1.28396
1.32654
1.37008
1.41458
1.46004
1.50645
1.55382
1.60211
1.65133
1.70145
1.75245
1.80432
1.85701
1.9105
1.96477
2.01976
2.07544
2.13176
2.18869
2.24616
2.30413
2.36254
2.42134
2.48046
2.53983
2.59941
2.65911
2.71887
2.77861
2.83828
2.89779
2.95707
3.01605
3.07464
3.13277
3.19037
3.24735
3.30365
3.35918
3.41388
3.46767
3.52047
3.57222
3.62286
3.6723
3.72049
3.76736
3.81285
3.85689
3.89944
3.94043
3.97981
4.01754
4.05357
4.08784
4.12033
4.151
4.1798
4.20672
4.23172
4.25477
4.27587
4.29499
4.31212
4.32724
4.34036
4.35147
4.36057
4.36767
4.37279
4.37591
4.37706
4.37629
4.37356
4.3689
4.36235
4.35395
4.34373
4.33173
4.31799
4.30256
4.28546
4.26676
4.2465
4.22474
4.20152
4.1769
4.15093
4.12367
4.09518
4.06552
4.03474
4.0029
3.97007
3.9363
3.90167
3.86621
3.83001
3.79311
3.75558
3.71749
3.67888
3.63985
3.60044
3.56072
3.52076
3.4806
3.44033
3.4
3.3597
3.31951
3.27955
3.23994
3.20083
3.1624
3.12485
3.0884
3.05317
3.01849
2.98241
0.0290919
0.0644916
0.0825964
0.0954874
0.106182
0.115744
0.124694
0.133338
0.141871
0.15043
0.159112
0.167986
0.177104
0.186504
0.196216
0.206265
0.216672
0.22746
0.23865
0.250265
0.262329
0.274868
0.287907
0.30147
0.315583
0.330268
0.345545
0.361434
0.377954
0.395119
0.412947
0.431449
0.450639
0.470529
0.49113
0.512455
0.534514
0.557322
0.580888
0.605226
0.630347
0.656266
0.682995
0.71055
0.738944
0.768192
0.79831
0.829313
0.86122
0.894047
0.927812
0.962532
0.998223
1.0349
1.07258
1.11128
1.15101
1.19179
1.23361
1.27651
1.32047
1.3655
1.41162
1.4588
1.50707
1.5564
1.60678
1.65821
1.71066
1.76412
1.81856
1.87395
1.93027
1.98747
2.04551
2.10436
2.16397
2.22429
2.28525
2.34682
2.40893
2.47151
2.5345
2.59784
2.66145
2.72526
2.78919
2.85318
2.91714
2.981
3.04467
3.10807
3.17111
3.23373
3.29583
3.35733
3.41814
3.47819
3.5374
3.59567
3.65295
3.70914
3.76419
3.818
3.87051
3.92165
3.97135
4.01954
4.06617
4.11117
4.15448
4.19605
4.23583
4.27376
4.30981
4.34393
4.37608
4.40623
4.43435
4.4604
4.48438
4.50624
4.52599
4.5436
4.55907
4.5724
4.58358
4.59262
4.59952
4.60431
4.60699
4.60759
4.60617
4.60263
4.59704
4.58946
4.57993
4.56848
4.55515
4.53998
4.52303
4.50434
4.48397
4.46196
4.43838
4.41328
4.38671
4.35874
4.32943
4.29884
4.26703
4.23407
4.20001
4.16492
4.12887
4.09192
4.05413
4.01556
3.97629
3.93637
3.89586
3.85483
3.81335
3.77149
3.7293
3.68686
3.64423
3.60147
3.55866
3.51588
3.47323
3.43083
3.38879
3.34728
3.30648
3.26659
3.22779
3.19024
3.15327
3.11522
0.030146
0.0662761
0.0847137
0.0978347
0.108703
0.118396
0.127441
0.136143
0.144701
0.153257
0.161913
0.170746
0.179813
0.189159
0.198817
0.208815
0.21918
0.229933
0.241098
0.252697
0.264754
0.277293
0.290337
0.303909
0.318033
0.332731
0.348024
0.363932
0.380475
0.397673
0.415546
0.434112
0.453387
0.473389
0.494134
0.515637
0.537917
0.560991
0.584875
0.609585
0.635137
0.661548
0.688839
0.71703
0.746139
0.776186
0.807192
0.839178
0.872164
0.906173
0.941223
0.977336
1.01453
1.05282
1.09223
1.13277
1.17446
1.21731
1.26133
1.30654
1.35293
1.40052
1.4493
1.49927
1.55043
1.60276
1.65625
1.7109
1.76666
1.82353
1.88146
1.94043
2.00041
2.06133
2.12318
2.18588
2.24939
2.31366
2.37861
2.4442
2.51035
2.57699
2.64405
2.71146
2.77914
2.847
2.91497
2.98297
3.0509
3.11869
3.18625
3.25349
3.32032
3.38665
3.45239
3.51746
3.58177
3.64522
3.70774
3.76924
3.82963
3.88885
3.9468
4.00341
4.05861
4.11233
4.16448
4.21501
4.26384
4.31092
4.35619
4.39959
4.44106
4.48057
4.51805
4.55347
4.58679
4.61798
4.647
4.67383
4.69844
4.72081
4.74094
4.7588
4.7744
4.78772
4.79877
4.80756
4.81411
4.81842
4.82052
4.82045
4.81828
4.81381
4.80723
4.79856
4.78784
4.77512
4.76044
4.74385
4.7254
4.70514
4.68313
4.65942
4.63409
4.60718
4.57875
4.54889
4.51763
4.48506
4.45124
4.41623
4.3801
4.34292
4.30475
4.26566
4.22572
4.18499
4.14353
4.10141
4.0587
4.01545
3.97174
3.92764
3.8832
3.8385
3.7936
3.74858
3.7035
3.65846
3.61356
3.5689
3.52462
3.48088
3.43786
3.39576
3.35474
3.31495
3.27578
3.23582
0.0307871
0.0673469
0.0859474
0.0991747
0.110115
0.119854
0.128917
0.137616
0.146151
0.154665
0.163263
0.172022
0.181001
0.190249
0.199804
0.2097
0.219963
0.230617
0.241687
0.253195
0.265163
0.277615
0.290573
0.304062
0.318106
0.33273
0.34796
0.363811
0.380304
0.397462
0.41531
0.433868
0.45316
0.473208
0.494034
0.515665
0.538133
0.561454
0.585647
0.610729
0.636721
0.663631
0.691495
0.720343
0.7502
0.781094
0.813048
0.846089
0.880241
0.915529
0.951976
0.989603
1.02843
1.06848
1.10976
1.15231
1.19612
1.24121
1.2876
1.33529
1.38429
1.4346
1.48621
1.53912
1.59332
1.6488
1.70554
1.76351
1.82269
1.88304
1.94453
2.00712
2.07077
2.13542
2.20102
2.26752
2.33485
2.40296
2.47177
2.54121
2.61121
2.68169
2.75258
2.82378
2.89523
2.96682
3.03849
3.11012
3.18165
3.25297
3.32399
3.39462
3.46477
3.53435
3.60325
3.6714
3.73869
3.80504
3.87036
3.93456
3.99755
4.05926
4.1196
4.17849
4.23586
4.29163
4.34572
4.39808
4.44862
4.4973
4.54404
4.5888
4.63151
4.67214
4.71063
4.74693
4.78102
4.81286
4.84242
4.86966
4.89458
4.91714
4.93735
4.95518
4.97063
4.9837
4.9944
5.00274
5.00873
5.0124
5.01377
5.01294
5.00985
5.00439
4.99673
4.98691
4.97498
4.96097
4.94494
4.92694
4.90703
4.88525
4.86167
4.83636
4.80937
4.78076
4.75062
4.71899
4.68595
4.65157
4.61592
4.57906
4.54106
4.50199
4.46192
4.42092
4.37906
4.33639
4.293
4.24894
4.20427
4.15907
4.11339
4.06731
4.02089
3.9742
3.9273
3.88028
3.83319
3.78615
3.73923
3.69256
3.64627
3.60052
3.55548
3.51134
3.46826
3.4264
3.38517
3.34343
0.0309968
0.0677313
0.0863673
0.099602
0.110529
0.120241
0.129265
0.137909
0.146374
0.154805
0.16331
0.171976
0.180862
0.190012
0.199464
0.209253
0.219405
0.229947
0.240901
0.252291
0.26414
0.276471
0.289308
0.302675
0.316597
0.331099
0.346203
0.361936
0.378325
0.395401
0.413192
0.431727
0.451034
0.471143
0.49208
0.513873
0.536548
0.560136
0.584661
0.610149
0.636632
0.664126
0.692675
0.722318
0.753082
0.784996
0.818091
0.852396
0.887943
0.924755
0.962856
1.00227
1.04301
1.0851
1.12856
1.1734
1.21963
1.26727
1.31632
1.36678
1.41867
1.47196
1.52665
1.58274
1.6402
1.69901
1.75915
1.82058
1.88326
1.94717
2.01225
2.07845
2.14573
2.21402
2.28326
2.35339
2.42435
2.49605
2.56843
2.64141
2.71491
2.78884
2.86312
2.93767
3.0124
3.08721
3.16202
3.23673
3.31125
3.38548
3.45933
3.53271
3.60552
3.67766
3.74905
3.81957
3.88915
3.95769
4.0251
4.09129
4.15618
4.21968
4.28171
4.34218
4.40104
4.45819
4.51356
4.5671
4.61872
4.66837
4.71598
4.76151
4.8049
4.8461
4.88506
4.92175
4.95612
4.98814
5.01779
5.04504
5.06986
5.09224
5.11217
5.12965
5.14466
5.15721
5.16731
5.17497
5.1802
5.18304
5.18353
5.18185
5.17769
5.17115
5.16236
5.15136
5.13819
5.12291
5.10557
5.08621
5.0649
5.04169
5.01666
4.98986
4.96135
4.93122
4.89953
4.86634
4.83172
4.79575
4.7585
4.72003
4.68042
4.63973
4.59804
4.55541
4.51192
4.46763
4.4226
4.3769
4.3306
4.28375
4.23643
4.18869
4.14061
4.09225
4.04368
3.99497
3.94619
3.89744
3.84881
3.80042
3.7524
3.70489
3.65807
3.61213
3.56721
3.52347
3.48038
3.43707
0.0309343
0.0676558
0.0862279
0.0994077
0.110278
0.119925
0.128873
0.137432
0.145803
0.154131
0.162521
0.171052
0.179786
0.188773
0.198051
0.207658
0.217624
0.227976
0.238737
0.249934
0.26159
0.27373
0.286381
0.299568
0.313321
0.327668
0.342642
0.358275
0.374603
0.391657
0.409473
0.428087
0.44753
0.467836
0.489038
0.511171
0.53427
0.558384
0.58353
0.609734
0.637011
0.665405
0.694975
0.725755
0.757784
0.791098
0.825733
0.861726
0.899116
0.93792
0.978157
1.01985
1.06301
1.10764
1.15377
1.2014
1.25054
1.30119
1.35335
1.40701
1.46217
1.51882
1.57692
1.63647
1.69743
1.75976
1.82344
1.88842
1.95465
2.02209
2.09068
2.16036
2.23107
2.30275
2.37533
2.44874
2.5229
2.59773
2.67317
2.74912
2.8255
2.90223
2.97922
3.05638
3.13363
3.21086
3.28799
3.36492
3.44157
3.51783
3.59361
3.66881
3.74335
3.81713
3.89005
3.96201
4.03294
4.10273
4.1713
4.23856
4.30442
4.36881
4.43163
4.49283
4.55231
4.61
4.66584
4.71975
4.77167
4.82154
4.8693
4.9149
4.95828
4.9994
5.03822
5.07469
5.10877
5.14045
5.16968
5.19645
5.22074
5.24252
5.2618
5.27856
5.29281
5.30454
5.31377
5.32051
5.32479
5.32662
5.32616
5.32343
5.3181
5.31044
5.30049
5.2883
5.27393
5.25741
5.23881
5.21819
5.1956
5.17111
5.14477
5.11667
5.08686
5.05542
5.02241
4.98791
4.95199
4.91471
4.87616
4.83639
4.79549
4.75352
4.71054
4.66664
4.62188
4.57632
4.53003
4.48307
4.4355
4.38739
4.3388
4.28979
4.24043
4.19079
4.14092
4.09089
4.04079
3.9907
3.94071
3.89093
3.8415
3.79256
3.74427
3.6968
3.65031
3.60495
3.56025
3.51563
0.0307323
0.067331
0.0857175
0.0987399
0.109453
0.118937
0.127716
0.136099
0.144289
0.152429
0.160625
0.168958
0.177491
0.186278
0.195362
0.204774
0.214546
0.224704
0.235277
0.246291
0.257776
0.269761
0.282276
0.295356
0.309035
0.323348
0.338333
0.354028
0.370472
0.387707
0.405778
0.424737
0.444625
0.465475
0.487327
0.510215
0.534167
0.559183
0.585337
0.6127
0.641339
0.671307
0.702633
0.73535
0.769495
0.805101
0.842196
0.880804
0.920938
0.962628
1.0059
1.05078
1.09726
1.14533
1.19499
1.24625
1.29908
1.35348
1.40944
1.46693
1.52593
1.58641
1.64833
1.71167
1.77636
1.84238
1.90967
1.97818
2.04785
2.11862
2.19044
2.26323
2.33693
2.41147
2.48677
2.56277
2.63939
2.71655
2.79416
2.87216
2.95045
3.02895
3.10758
3.18625
3.26487
3.34335
3.42161
3.49956
3.5771
3.65414
3.7306
3.80638
3.88139
3.95555
4.02875
4.10092
4.17196
4.24178
4.31031
4.37745
4.44312
4.50725
4.56976
4.63057
4.68961
4.74681
4.8021
4.85541
4.90668
4.95585
5.00288
5.0477
5.09027
5.13054
5.16846
5.20401
5.23715
5.26784
5.29607
5.32181
5.34504
5.36574
5.38392
5.39956
5.41267
5.42325
5.43131
5.43687
5.43994
5.44058
5.43908
5.43506
5.42852
5.41966
5.40852
5.39514
5.37958
5.36189
5.34213
5.32035
5.29662
5.271
5.24356
5.21436
5.18348
5.15098
5.11693
5.08141
5.04449
5.00623
4.96671
4.926
4.88417
4.84129
4.79742
4.75263
4.70699
4.66057
4.61343
4.56562
4.5172
4.46825
4.41881
4.36896
4.31874
4.26822
4.21746
4.16653
4.1155
4.06446
4.01349
3.9627
3.91222
3.86219
3.81275
3.76407
3.7163
3.66961
3.62357
3.57795
0.0303214
0.0666435
0.084741
0.0975292
0.108018
0.117283
0.125847
0.134018
0.142002
0.14994
0.157939
0.16608
0.174428
0.183033
0.19194
0.201187
0.210807
0.220833
0.231297
0.242232
0.253674
0.265661
0.27823
0.291422
0.305283
0.319864
0.335223
0.351396
0.368428
0.386367
0.405253
0.425103
0.445951
0.467893
0.490999
0.515329
0.540946
0.567935
0.596329
0.626178
0.657538
0.690454
0.724956
0.761071
0.798825
0.838236
0.879315
0.922068
0.966501
1.01261
1.06039
1.1098
1.16081
1.21343
1.26764
1.3234
1.3807
1.4395
1.49976
1.56143
1.62449
1.68888
1.75455
1.82146
1.88955
1.95876
2.02904
2.10033
2.17257
2.2457