/*--------------------------------*- C++ -*----------------------------------*\
  =========                 |
  \\      /  F ield         | OpenFOAM: The Open Source CFD Toolbox
   \\    /   O peration     | Website:  https://openfoam.org
    \\  /    A nd           | Version:  8
     \\/     M anipulation  |
\*---------------------------------------------------------------------------*/
FoamFile
{
    version     2.0;
    format      ascii;
    class       volScalarField;
    location    "287";
    object      nut;
}
// * * * * * * * * * * * * * * * * * * * * * * * * * * * * * * * * * * * * * //

dimensions      [0 2 -1 0 0 0 0];

internalField   nonuniform List<scalar> 
12225
(
4.14969e-05
3.93414e-05
3.74842e-05
3.54319e-05
3.37853e-05
3.24192e-05
3.15114e-05
3.09108e-05
3.09171e-05
3.10971e-05
3.15674e-05
3.21128e-05
3.31458e-05
3.38006e-05
3.51028e-05
3.56701e-05
3.75761e-05
3.56952e-05
0.000332329
0.000215221
0.000179281
0.00015768
0.000146209
0.000138213
0.000132759
0.00013163
0.000129529
0.000130045
0.000129063
0.000129424
0.000128672
0.000128542
0.000128089
0.0001274
0.000127392
0.000126522
0.000674967
0.000450837
0.000355785
0.000309833
0.000275296
0.000251094
0.000231722
0.00021727
0.000202702
0.000192112
0.000182641
0.00017521
0.000169395
0.000163693
0.00016032
0.000155594
0.000153829
0.000149935
0.000833618
0.000684899
0.000572001
0.000499957
0.000449475
0.000411943
0.000380795
0.000355992
0.000334031
0.00031478
0.000298352
0.000281725
0.000270333
0.000256103
0.000248238
0.000236221
0.000230459
0.00022055
0.000861255
0.000802526
0.00074214
0.000676566
0.000624015
0.000581363
0.000545887
0.000514551
0.000489538
0.000464436
0.000445882
0.000424095
0.000409966
0.000390847
0.000379938
0.000363171
0.000354561
0.000339655
0.00085498
0.000840347
0.000822209
0.000786486
0.000750874
0.000715893
0.000685773
0.000656132
0.000632561
0.000607528
0.000589014
0.000567272
0.000552311
0.000533142
0.000520832
0.000503815
0.000493399
0.000477638
0.000852908
0.000850685
0.00084424
0.000832828
0.000817416
0.000796998
0.000777893
0.00075674
0.000738907
0.000719157
0.000703546
0.000685642
0.000672146
0.000655961
0.00064435
0.000629603
0.000619592
0.000605282
0.000851923
0.000851813
0.000850173
0.000847394
0.000841454
0.000833728
0.000824898
0.000813418
0.000802811
0.000790478
0.000779723
0.000767555
0.000757441
0.000745811
0.000736571
0.00072558
0.000717214
0.000706133
0.000851751
0.000851542
0.000851035
0.000850338
0.000848881
0.000846168
0.000843035
0.000838306
0.000833404
0.000827365
0.000821222
0.000814781
0.00080842
0.000801542
0.000795262
0.000788448
0.00078221
0.000775319
0.000851769
0.000851389
0.000851046
0.000850633
0.000850248
0.000849368
0.000848405
0.000846781
0.000844957
0.000842532
0.000839926
0.000836804
0.0008338
0.000830162
0.000826981
0.000822943
0.00081992
0.000815328
0.000851787
0.000851359
0.000851012
0.000850613
0.000850329
0.000849905
0.000849526
0.000848929
0.000848303
0.000847394
0.000846467
0.000845179
0.000843993
0.000842356
0.000841001
0.00083904
0.000837649
0.000835375
0.000851789
0.000851359
0.000850995
0.000850605
0.000850291
0.000849938
0.000849646
0.00084928
0.000848955
0.000848505
0.000848099
0.000847509
0.000846999
0.000846246
0.000845644
0.000844724
0.000844062
0.000842981
0.000851786
0.000851363
0.000850985
0.000850604
0.000850269
0.000849926
0.00084963
0.000849313
0.000849042
0.000848729
0.000848462
0.000848127
0.000847844
0.000847467
0.000847157
0.000846727
0.000846388
0.000845904
0.000851783
0.000851364
0.000850978
0.000850602
0.000850256
0.000849916
0.000849607
0.0008493
0.000849022
0.000848741
0.000848488
0.000848224
0.000847989
0.000847735
0.000847508
0.000847258
0.000847033
0.000846783
0.000851781
0.000851364
0.000850972
0.000850598
0.000850246
0.000849908
0.000849591
0.000849286
0.000849
0.000848723
0.000848463
0.000848211
0.000847975
0.000847745
0.000847527
0.000847316
0.000847114
0.000846918
0.00085178
0.000851363
0.000850969
0.000850594
0.000850239
0.000849901
0.00084958
0.000849274
0.000848984
0.000848707
0.000848443
0.000848191
0.000847951
0.000847721
0.000847502
0.000847292
0.000847092
0.0008469
0.000851779
0.000851362
0.000850967
0.000850591
0.000850234
0.000849894
0.000849572
0.000849265
0.000848973
0.000848694
0.000848428
0.000848174
0.000847932
0.000847701
0.00084748
0.000847268
0.000847066
0.000846873
0.000851779
0.000851362
0.000850965
0.000850588
0.00085023
0.00084989
0.000849567
0.000849258
0.000848965
0.000848685
0.000848418
0.000848163
0.000847919
0.000847686
0.000847464
0.000847251
0.000847047
0.000846853
0.000851779
0.000851362
0.000850965
0.000850588
0.000850229
0.000849889
0.000849565
0.000849256
0.000848962
0.000848681
0.000848413
0.000848157
0.000847913
0.000847679
0.000847456
0.000847242
0.000847037
0.000846842
0.000851779
0.000851362
0.000850965
0.000850589
0.000850231
0.000849891
0.000849567
0.000849259
0.000848965
0.000848684
0.000848416
0.000848161
0.000847916
0.000847683
0.000847459
0.000847245
0.000847039
0.000846843
0.000851779
0.000851363
0.000850967
0.000850592
0.000850235
0.000849896
0.000849573
0.000849266
0.000848972
0.000848693
0.000848423
0.000848168
0.000847919
0.000847682
0.00084745
0.00084723
0.000847011
0.000846805
0.000851778
0.000851366
0.000850968
0.000850599
0.00085024
0.000849907
0.00084958
0.000849274
0.000848964
0.000848671
0.000848364
0.000848071
0.000847755
0.000847454
0.000847122
0.00084681
0.000846455
0.000846134
0.000851777
0.000851374
0.000850971
0.000850615
0.00085024
0.000849889
0.000849478
0.000849053
0.000848529
0.000847977
0.0008473
0.000846603
0.000845765
0.000844938
0.000843953
0.000843027
0.000841915
0.000840937
0.000851802
0.00085141
0.00085097
0.000850549
0.00084986
0.000848967
0.000847607
0.000845979
0.000843902
0.000841634
0.000838953
0.000836212
0.000833114
0.00083011
0.000826759
0.000823676
0.000820179
0.000817172
0.000852138
0.000851403
0.000850234
0.000848252
0.000844472
0.000839355
0.000832711
0.000825762
0.000817912
0.000809998
0.000801612
0.000793623
0.000785326
0.0007777
0.000769736
0.000762692
0.000755114
0.000748785
0.000854142
0.000847718
0.000840125
0.000827122
0.000808707
0.000789646
0.00076997
0.000751414
0.0007333
0.00071689
0.000700927
0.000686773
0.000672821
0.000660661
0.000648368
0.000637929
0.000626941
0.000618007
0.00085497
0.000818336
0.000776229
0.000726634
0.000684937
0.000649855
0.000618457
0.000592018
0.000568376
0.000548305
0.000529681
0.000513985
0.00049874
0.000486007
0.000473191
0.000462697
0.00045161
0.000442792
0.000807487
0.000666879
0.000570551
0.000509853
0.000465647
0.000431192
0.00040413
0.000382497
0.000364189
0.000349061
0.000335935
0.000325071
0.000314473
0.00030624
0.000297954
0.00029136
0.000284272
0.000278923
0.000501854
0.000348404
0.00029269
0.000259173
0.000236321
0.000221176
0.000211542
0.000204014
0.000198479
0.000195058
0.000192217
0.000190366
0.000188581
0.000187438
0.000186163
0.000185473
0.000184553
0.000184141
7.27285e-05
7.02231e-05
6.79539e-05
6.56136e-05
6.33827e-05
6.12765e-05
5.94929e-05
5.79573e-05
5.67103e-05
5.5703e-05
5.49775e-05
5.44185e-05
5.41086e-05
5.38874e-05
5.38766e-05
5.39623e-05
5.40719e-05
5.43225e-05
1.68882e-07
4.52676e-06
8.46701e-06
1.19405e-05
1.52623e-05
1.89962e-05
2.33307e-05
2.85e-05
3.46287e-05
4.16763e-05
4.9494e-05
5.78826e-05
6.66546e-05
7.56469e-05
8.47364e-05
9.38285e-05
0.00010286
0.000111784
0.000120564
0.00012916
0.000137502
0.000145481
0.000152913
0.000159542
0.000165009
0.000168899
0.000170687
0.000169708
0.00016515
0.000156511
0.000142724
2.8849e-05
2.96024e-05
3.10809e-05
3.28934e-05
3.42259e-05
3.62735e-05
3.83498e-05
3.93225e-05
4.18499e-05
4.50592e-05
4.73058e-05
4.79756e-05
4.93973e-05
5.02618e-05
5.14524e-05
5.25012e-05
5.36425e-05
5.47374e-05
5.58553e-05
5.69584e-05
5.80648e-05
5.91652e-05
6.02639e-05
6.13587e-05
6.24504e-05
6.35388e-05
6.46238e-05
6.57053e-05
6.67832e-05
6.78573e-05
6.89275e-05
6.99934e-05
7.10549e-05
7.21115e-05
7.31631e-05
7.42091e-05
7.52494e-05
7.62832e-05
7.73105e-05
7.83304e-05
7.93428e-05
8.03468e-05
8.13424e-05
8.23286e-05
8.33052e-05
8.42713e-05
8.52267e-05
8.61706e-05
8.71027e-05
8.8022e-05
8.89285e-05
8.9821e-05
9.06995e-05
9.15628e-05
9.24108e-05
9.32423e-05
9.40572e-05
9.48544e-05
9.56335e-05
9.63932e-05
9.71326e-05
9.78506e-05
9.8546e-05
9.92178e-05
9.98651e-05
0.000100488
0.000101089
0.000101675
0.000102234
0.000102774
0.000103291
0.000103785
0.000104257
0.000104707
0.000105132
0.000105535
0.000105913
0.000106268
0.000106598
0.000106904
0.000107186
0.000107442
0.000107673
0.00010788
0.000108061
0.000108217
0.000108347
0.000108452
0.000108532
0.000108586
0.000108615
0.000108619
0.000108597
0.00010855
0.000108478
0.00010838
0.000108258
0.000108113
0.000107947
0.000107752
0.00010753
0.000107283
0.000107018
0.000106732
0.000106418
0.000106085
0.000105729
0.000105351
0.000104952
0.000104533
0.000104094
0.000103635
0.000103157
0.000102661
0.000102146
0.000101613
0.000101064
0.000100498
9.99167e-05
9.93199e-05
9.87084e-05
9.8083e-05
9.74441e-05
9.67926e-05
9.6129e-05
9.54542e-05
9.47686e-05
9.40733e-05
9.3369e-05
9.26575e-05
9.19418e-05
9.12396e-05
9.0694e-05
9.02805e-05
8.98758e-05
8.94683e-05
8.90567e-05
8.86414e-05
8.82225e-05
8.78005e-05
8.73751e-05
8.69462e-05
8.65123e-05
8.60714e-05
8.56178e-05
8.51413e-05
8.46123e-05
8.39707e-05
8.20509e-05
8.71519e-07
2.44275e-05
5.56031e-05
7.73008e-05
9.10681e-05
0.000100245
0.000107643
0.00011488
0.000122749
0.0001315
0.000141085
0.000151321
0.000161987
0.000172875
0.000183816
0.000194672
0.00020533
0.000215686
0.000225628
0.000235011
0.00024362
0.000251141
0.000257117
0.000260918
0.000261731
0.000258586
0.00025043
0.000236337
0.000215891
0.000189656
0.000159687
0.000129656
0.000134122
0.000141867
0.000151293
0.000162315
0.000176292
0.000190128
0.000203716
0.000219087
0.000234056
0.000246564
0.000264794
0.000271779
0.000278191
0.000285018
0.000292593
0.000300303
0.0003083
0.000316392
0.000324618
0.00033293
0.000341335
0.00034982
0.000358386
0.000367032
0.000375757
0.000384562
0.000393448
0.000402416
0.000411467
0.000420601
0.00042982
0.000439124
0.000448511
0.000457981
0.000467534
0.000477167
0.000486879
0.000496668
0.000506529
0.000516461
0.000526459
0.00053652
0.000546639
0.00055681
0.00056703
0.000577293
0.000587593
0.000597923
0.00060828
0.000618655
0.000629043
0.000639438
0.000649834
0.000660225
0.000670604
0.000680967
0.000691308
0.000701622
0.000711903
0.000722142
0.000732327
0.000742435
0.000752433
0.000762262
0.000771812
0.000780902
0.000789244
0.000797563
0.000805725
0.000813759
0.000821653
0.000829404
0.000837004
0.00084445
0.000851735
0.000858853
0.0008658
0.000872571
0.000879161
0.000885566
0.00089178
0.000897801
0.000903623
0.000909243
0.000914658
0.000919863
0.000924856
0.000929634
0.000934195
0.000938536
0.000942654
0.000946547
0.000950215
0.000953655
0.00095687
0.000959858
0.000962607
0.000965144
0.000967518
0.000969578
0.000971269
0.000972774
0.000974201
0.000975306
0.00097619
0.000976845
0.000977271
0.000977472
0.00097745
0.000977208
0.000976749
0.000976077
0.000975195
0.000974108
0.00097282
0.000971333
0.000969654
0.000967785
0.000965732
0.000963501
0.000961095
0.000958521
0.000955783
0.000952888
0.00094984
0.000946645
0.000943305
0.000939822
0.000936185
0.000932333
0.000927943
0.000921805
0.000914424
0.000906634
0.000898671
0.000890607
0.000882472
0.000874279
0.000866037
0.000857752
0.000849423
0.000841042
0.000832585
0.000824
0.000815137
0.000805755
0.000794339
0.000764164
1.86966e-06
4.10353e-05
8.92829e-05
0.000125825
0.000152205
0.000171283
0.000185757
0.000197761
0.000208758
0.000219608
0.000230713
0.000242179
0.000253951
0.000265903
0.000277896
0.000289799
0.000301498
0.000312884
0.000323846
0.000334245
0.000343889
0.000352501
0.000359689
0.000364931
0.000367602
0.000367057
0.000362805
0.000354784
0.000343668
0.000331207
0.000320473
0.000315862
0.000327717
0.000344112
0.000362759
0.000382995
0.000404349
0.000425464
0.000446378
0.000466956
0.000486927
0.00050705
0.000525833
0.000541603
0.000557165
0.000572867
0.000588906
0.000605144
0.000621606
0.000638234
0.000655028
0.000671969
0.000689057
0.000706286
0.000723657
0.00074117
0.000758827
0.000776627
0.000794572
0.000812661
0.000830896
0.000849278
0.000867806
0.000886479
0.000905295
0.00092425
0.000943341
0.000962564
0.000981913
0.00100138
0.00102096
0.00104065
0.00106044
0.00108032
0.00110027
0.0011203
0.00114038
0.00116052
0.00118069
0.00120089
0.0012211
0.00124132
0.00126152
0.0012817
0.00130184
0.00132193
0.00134196
0.00136192
0.00138178
0.00140153
0.00142115
0.00144062
0.00145991
0.00147897
0.00149776
0.00151621
0.00153423
0.00155173
0.0015688
0.00158564
0.0016022
0.00161848
0.00163447
0.00165015
0.00166552
0.00168055
0.00169525
0.00170959
0.00172357
0.00173717
0.0017504
0.00176323
0.00177567
0.00178769
0.0017993
0.00181048
0.00182124
0.00183155
0.00184142
0.00185084
0.00185981
0.00186832
0.00187636
0.00188393
0.00189103
0.00189766
0.00190381
0.00190949
0.00191469
0.00191944
0.00192383
0.00192764
0.00193068
0.00193333
0.0019357
0.00193752
0.00193886
0.00193972
0.00194012
0.00194005
0.00193952
0.00193854
0.00193711
0.00193525
0.00193296
0.00193025
0.00192712
0.00192358
0.00191965
0.00191533
0.00191064
0.00190557
0.00190016
0.00189439
0.00188829
0.00188187
0.00187514
0.0018681
0.00186077
0.00185315
0.00184523
0.00183691
0.00182785
0.00181714
0.00180502
0.00179218
0.00177895
0.00176547
0.00175179
0.00173795
0.00172399
0.0017099
0.00169569
0.00168136
0.00166685
0.00165204
0.00163668
0.00162005
0.00159932
0.00155502
3.02494e-06
5.38748e-05
0.00011528
0.000163021
0.000198112
0.00022408
0.00024399
0.000260218
0.000274461
0.000287818
0.000300911
0.000314027
0.000327239
0.000340512
0.000353761
0.000366897
0.00037984
0.000392527
0.00040491
0.000416944
0.000428575
0.000439719
0.000450243
0.000459957
0.000468621
0.000475991
0.000481917
0.000486501
0.000490298
0.000494496
0.000500933
0.000511768
0.000528519
0.000548095
0.000569236
0.000591401
0.000614179
0.000637161
0.000660242
0.000683451
0.000706705
0.000730018
0.00075295
0.000775578
0.000798219
0.000820986
0.000843946
0.000867096
0.000890445
0.000913984
0.000937714
0.000961629
0.000985731
0.00101002
0.00103449
0.00105915
0.00108401
0.00110906
0.0011343
0.00115974
0.00118537
0.00121119
0.00123719
0.00126339
0.00128977
0.00131632
0.00134304
0.00136992
0.00139696
0.00142414
0.00145146
0.0014789
0.00150645
0.0015341
0.00156183
0.00158964
0.0016175
0.0016454
0.00167333
0.00170127
0.0017292
0.0017571
0.00178496
0.00181276
0.00184048
0.00186809
0.00189559
0.00192295
0.00195014
0.00197715
0.00200394
0.00203048
0.00205675
0.00208269
0.00210827
0.00213342
0.0021581
0.00218232
0.00220611
0.00222955
0.00225261
0.00227528
0.00229753
0.00231935
0.00234073
0.00236165
0.00238209
0.00240204
0.00242149
0.00244042
0.00245881
0.00247666
0.00249396
0.00251069
0.00252684
0.0025424
0.00255736
0.00257172
0.00258545
0.00259857
0.00261105
0.0026229
0.0026341
0.00264465
0.00265455
0.00266379
0.00267238
0.0026803
0.00268757
0.00269427
0.00270047
0.0027057
0.00271
0.00271387
0.00271717
0.00271978
0.00272171
0.002723
0.00272363
0.00272362
0.00272298
0.00272171
0.00271983
0.00271734
0.00271426
0.00271059
0.00270634
0.00270153
0.00269616
0.00269026
0.00268383
0.00267689
0.00266945
0.00266152
0.00265313
0.00264428
0.00263499
0.00262528
0.00261515
0.00260462
0.00259367
0.00258221
0.00256999
0.00255647
0.00254172
0.00252615
0.00251004
0.00249355
0.00247676
0.00245973
0.00244249
0.00242506
0.00240746
0.00238968
0.00237171
0.00235344
0.00233452
0.00231399
0.00228857
0.00224205
4.1925e-06
6.47008e-05
0.00013711
0.000194157
0.000236897
0.000268928
0.000293624
0.000313602
0.000330768
0.000346413
0.000361343
0.000375999
0.000390583
0.000405151
0.00041969
0.000434163
0.000448536
0.000462795
0.00047695
0.000491034
0.000505095
0.000519186
0.00053335
0.000547607
0.000561944
0.000576328
0.000590728
0.000605182
0.000619883
0.000635273
0.000652051
0.000670891
0.000691935
0.000714474
0.000738064
0.000762472
0.000787546
0.000813173
0.000839334
0.000866042
0.000893252
0.000920848
0.00094866
0.000976401
0.00100428
0.00103234
0.00106061
0.00108908
0.00111776
0.00114665
0.00117576
0.00120509
0.00123463
0.00126439
0.00129435
0.00132454
0.00135495
0.00138558
0.00141644
0.00144752
0.00147882
0.00151033
0.00154206
0.00157399
0.00160611
0.00163843
0.00167093
0.0017036
0.00173643
0.0017694
0.00180251
0.00183574
0.00186907
0.0019025
0.00193599
0.00196954
0.00200313
0.00203674
0.00207034
0.00210392
0.00213747
0.00217095
0.00220435
0.00223764
0.0022708
0.00230382
0.00233666
0.00236931
0.00240173
0.0024339
0.00246579
0.00249737
0.00252861
0.00255947
0.00258993
0.00261997
0.00264957
0.00267872
0.00270742
0.00273569
0.0027635
0.00279084
0.00281769
0.00284402
0.00286983
0.00289509
0.00291978
0.00294389
0.0029674
0.0029903
0.00301257
0.00303419
0.00305515
0.00307544
0.00309505
0.00311396
0.00313217
0.00314965
0.00316641
0.00318243
0.0031977
0.00321222
0.00322598
0.00323897
0.00325118
0.00326262
0.00327328
0.00328317
0.0032923
0.00330085
0.00330855
0.00331522
0.00332085
0.00332604
0.00333042
0.00333401
0.00333682
0.00333884
0.0033401
0.0033406
0.00334034
0.00333934
0.00333761
0.00333516
0.00333199
0.00332812
0.00332356
0.00331833
0.00331243
0.00330588
0.0032987
0.0032909
0.0032825
0.00327351
0.00326395
0.00325384
0.00324319
0.00323202
0.00322035
0.00320818
0.0031955
0.00318226
0.00316829
0.00315329
0.00313728
0.00312045
0.00310302
0.00308511
0.00306682
0.00304822
0.00302934
0.00301021
0.00299087
0.00297132
0.00295154
0.00293141
0.00291063
0.00288821
0.00286096
0.00281682
5.31019e-06
7.38235e-05
0.000155511
0.000220584
0.000270169
0.000307736
0.000336865
0.00036036
0.0003803
0.000398148
0.000414868
0.00043105
0.000447017
0.000462928
0.000478844
0.000494785
0.000510761
0.000526796
0.000542933
0.000559241
0.000575808
0.000592733
0.000610117
0.000628046
0.000646587
0.000665774
0.000685619
0.000706131
0.000727345
0.000749365
0.000772373
0.000796528
0.000821827
0.000848097
0.000875191
0.000903011
0.00093149
0.000960576
0.000990247
0.00102049
0.00105124
0.00108242
0.00111391
0.00114562
0.00117755
0.00120971
0.0012421
0.0012747
0.00130753
0.00134059
0.00137387
0.00140739
0.00144113
0.00147511
0.00150934
0.0015438
0.00157849
0.0016134
0.00164853
0.00168388
0.00171945
0.00175522
0.0017912
0.00182738
0.00186374
0.00190028
0.00193699
0.00197385
0.00201086
0.002048
0.00208526
0.00212262
0.00216007
0.00219758
0.00223515
0.00227275
0.00231037
0.00234798
0.00238557
0.00242311
0.00246059
0.00249798
0.00253526
0.00257241
0.00260941
0.00264622
0.00268283
0.00271922
0.00275535
0.00279119
0.00282673
0.00286194
0.00289678
0.00293124
0.00296528
0.00299889
0.00303205
0.00306474
0.00309697
0.00312871
0.00315995
0.00319067
0.00322085
0.00325047
0.00327951
0.00330795
0.00333577
0.00336295
0.00338947
0.00341533
0.00344049
0.00346495
0.00348869
0.00351169
0.00353395
0.00355544
0.00357615
0.00359609
0.00361522
0.00363354
0.00365105
0.00366773
0.00368357
0.00369858
0.00371273
0.00372603
0.00373848
0.00375007
0.00376092
0.00377107
0.00378015
0.00378818
0.00379523
0.00380168
0.00380724
0.00381193
0.00381576
0.00381872
0.00382085
0.00382213
0.00382258
0.00382222
0.00382104
0.00381906
0.0038163
0.00381276
0.00380845
0.00380339
0.00379759
0.00379107
0.00378384
0.00377592
0.00376732
0.00375806
0.00374816
0.00373763
0.0037265
0.00371478
0.00370248
0.00368962
0.00367619
0.00366216
0.00364743
0.00363186
0.00361541
0.0035982
0.00358036
0.00356199
0.00354318
0.00352399
0.00350447
0.00348468
0.00346464
0.00344438
0.0034239
0.00340313
0.00338179
0.00335899
0.00333189
0.00329185
6.33673e-06
8.13818e-05
0.000170819
0.00024286
0.000298604
0.000341292
0.000374617
0.000401509
0.000424183
0.000444241
0.000462787
0.000480545
0.000497958
0.000515281
0.000532654
0.000550154
0.000567834
0.000585745
0.000603948
0.00062252
0.000641555
0.000661153
0.000681415
0.000702433
0.000724278
0.000746993
0.000770593
0.000795073
0.000820421
0.000846632
0.00087372
0.000901694
0.000930523
0.000960141
0.000990479
0.00102148
0.0010531
0.00108528
0.00111801
0.00115124
0.00118494
0.00121904
0.00125348
0.0012882
0.00132319
0.00135843
0.00139391
0.00142961
0.00146554
0.00150169
0.00153808
0.00157468
0.00161152
0.00164858
0.00168587
0.00172338
0.0017611
0.00179905
0.0018372
0.00187556
0.00191413
0.00195288
0.00199183
0.00203096
0.00207027
0.00210974
0.00214936
0.00218912
0.00222901
0.00226902
0.00230913
0.00234933
0.0023896
0.00242993
0.00247029
0.00251067
0.00255106
0.00259142
0.00263175
0.00267202
0.00271222
0.00275231
0.00279228
0.0028321
0.00287176
0.00291123
0.00295048
0.00298949
0.00302823
0.00306669
0.00310483
0.00314263
0.00318006
0.00321711
0.00325374
0.00328994
0.00332568
0.00336096
0.00339575
0.00343004
0.00346381
0.00349704
0.0035297
0.00356177
0.00359324
0.00362408
0.00365428
0.00368381
0.00371265
0.00374079
0.0037682
0.00379488
0.0038208
0.00384595
0.00387031
0.00389388
0.00391662
0.00393854
0.00395963
0.00397986
0.00399923
0.00401773
0.00403535
0.00405208
0.00406791
0.00408285
0.00409688
0.00411002
0.00412247
0.00413394
0.00414443
0.00415378
0.00416226
0.00416996
0.00417672
0.00418257
0.00418751
0.00419154
0.00419467
0.00419692
0.00419829
0.0041988
0.00419844
0.00419723
0.00419519
0.00419232
0.00418863
0.00418415
0.00417888
0.00417283
0.00416603
0.00415848
0.0041502
0.00414122
0.00413154
0.00412119
0.00411017
0.00409852
0.00408624
0.00407335
0.00405985
0.00404573
0.00403093
0.00401538
0.00399906
0.00398201
0.00396433
0.00394609
0.00392738
0.00390824
0.00388874
0.00386893
0.00384886
0.00382858
0.00380811
0.00378742
0.0037663
0.00374398
0.00371808
0.00368216
7.24308e-06
8.74907e-05
0.000183291
0.000261334
0.000322591
0.000370015
0.000407327
0.000437529
0.000462928
0.000485234
0.000505669
0.00052507
0.000543989
0.000562772
0.000581634
0.000600708
0.000620086
0.000639841
0.00066004
0.000680758
0.000702073
0.000724071
0.000746835
0.000770437
0.00079496
0.000820416
0.000846809
0.000874126
0.00090234
0.000931419
0.000961329
0.000992038
0.0010235
0.00105568
0.00108851
0.00112196
0.00115597
0.0011905
0.00122552
0.00126099
0.00129688
0.00133315
0.00136976
0.00140666
0.00144384
0.00148127
0.00151894
0.00155682
0.00159493
0.00163324
0.00167176
0.00171049
0.00174943
0.00178858
0.00182793
0.00186748
0.00190723
0.00194717
0.00198731
0.00202763
0.00206814
0.00210882
0.00214968
0.0021907
0.00223187
0.0022732
0.00231466
0.00235626
0.00239797
0.00243979
0.0024817
0.00252369
0.00256575
0.00260785
0.00265
0.00269216
0.00273432
0.00277646
0.00281857
0.00286062
0.0029026
0.00294448
0.00298625
0.00302788
0.00306934
0.00311063
0.0031517
0.00319255
0.00323314
0.00327345
0.00331346
0.00335314
0.00339247
0.00343142
0.00346997
0.0035081
0.00354579
0.00358302
0.00361976
0.00365601
0.00369172
0.00372689
0.00376149
0.0037955
0.00382889
0.00386164
0.00389374
0.00392516
0.00395588
0.00398588
0.00401515
0.00404365
0.00407139
0.00409833
0.00412447
0.00414979
0.00417427
0.0041979
0.00422067
0.00424256
0.00426356
0.00428367
0.00430287
0.00432115
0.0043385
0.00435493
0.00437042
0.00438505
0.0043989
0.00441167
0.00442351
0.00443419
0.00444406
0.00445301
0.00446101
0.00446805
0.00447416
0.00447933
0.00448358
0.00448691
0.00448933
0.00449085
0.00449149
0.00449124
0.00449013
0.00448816
0.00448535
0.0044817
0.00447724
0.00447197
0.00446591
0.00445908
0.00445148
0.00444314
0.00443408
0.0044243
0.00441383
0.00440268
0.00439087
0.00437841
0.00436531
0.00435158
0.00433717
0.00432207
0.00430624
0.00428974
0.00427259
0.00425488
0.00423666
0.00421799
0.00419893
0.00417954
0.00415989
0.00414002
0.00412001
0.00409985
0.00407941
0.00405806
0.00403387
0.00400249
8.01156e-06
9.22633e-05
0.000193152
0.000276293
0.000342427
0.000394197
0.000435277
0.000468688
0.000496792
0.000521375
0.000543748
0.000564844
0.000585305
0.000605561
0.000625889
0.000646474
0.000667446
0.000688933
0.000710967
0.000733607
0.000756914
0.000780948
0.000805757
0.000831369
0.000857859
0.00088528
0.000913638
0.000942915
0.00097308
0.00100409
0.00103591
0.00106849
0.00110179
0.00113577
0.00117036
0.00120554
0.00124126
0.00127748
0.00131415
0.00135122
0.00138865
0.00142634
0.00146432
0.00150259
0.00154116
0.00157998
0.00161901
0.00165824
0.00169765
0.00173725
0.00177703
0.00181699
0.00185712
0.00189744
0.00193793
0.0019786
0.00201944
0.00206045
0.00210164
0.00214299
0.0021845
0.00222617
0.00226801
0.00230999
0.00235212
0.0023944
0.00243681
0.00247934
0.002522
0.00256476
0.00260762
0.00265057
0.0026936
0.00273669
0.00277983
0.002823
0.0028662
0.00290939
0.00295258
0.00299573
0.00303883
0.00308186
0.0031248
0.00316763
0.00321032
0.00325286
0.00329522
0.00333737
0.0033793
0.00342098
0.00346239
0.00350349
0.00354427
0.0035847
0.00362475
0.00366441
0.00370365
0.00374244
0.00378076
0.00381859
0.00385591
0.00389269
0.0039289
0.00396453
0.00399954
0.00403393
0.00406765
0.0041007
0.00413304
0.00416466
0.00419555
0.00422567
0.004255
0.00428354
0.00431127
0.00433816
0.0043642
0.00438938
0.00441369
0.0044371
0.00445961
0.0044812
0.00450187
0.00452161
0.0045404
0.00455824
0.00457513
0.0045912
0.0046063
0.00462042
0.00463356
0.00464563
0.00465684
0.00466707
0.00467632
0.0046846
0.00469192
0.00469829
0.00470372
0.00470822
0.00471179
0.00471444
0.00471619
0.00471704
0.00471701
0.0047161
0.00471433
0.00471171
0.00470825
0.00470398
0.00469889
0.00469301
0.00468634
0.00467891
0.00467074
0.00466182
0.00465219
0.00464186
0.00463084
0.00461914
0.00460679
0.00459377
0.00458009
0.00456574
0.0045507
0.00453499
0.00451866
0.00450174
0.0044843
0.00446638
0.00444805
0.00442937
0.00441042
0.00439128
0.00437201
0.00435267
0.00433317
0.00431302
0.00429071
0.0042637
8.63283e-06
9.58097e-05
0.000200603
0.00028807
0.000358364
0.000414086
0.000458692
0.000495183
0.000525939
0.000552794
0.000577124
0.000599932
0.00062194
0.00064367
0.000665413
0.000687356
0.000709606
0.000732229
0.000755442
0.000779341
0.000803986
0.000829429
0.000855714
0.000882893
0.000910983
0.000939987
0.000969887
0.00100065
0.00103223
0.0010646
0.00109772
0.00113154
0.00116601
0.00120109
0.00123674
0.00127291
0.00130955
0.00134664
0.00138412
0.00142198
0.00146018
0.00149872
0.00153756
0.00157665
0.0016159
0.00165534
0.00169495
0.0017347
0.00177459
0.00181462
0.00185479
0.00189511
0.00193557
0.00197618
0.00201694
0.00205784
0.0020989
0.00214011
0.00218147
0.00222299
0.00226467
0.0023065
0.00234848
0.00239063
0.00243292
0.00247537
0.00251797
0.00256071
0.0026036
0.00264661
0.00268976
0.00273302
0.00277639
0.00281986
0.00286342
0.00290706
0.00295075
0.00299449
0.00303827
0.00308205
0.00312583
0.00316959
0.0032133
0.00325695
0.0033005
0.00334395
0.00338727
0.00343042
0.00347339
0.00351615
0.00355868
0.00360095
0.00364293
0.0036846
0.00372592
0.00376688
0.00380745
0.0038476
0.0038873
0.00392653
0.00396526
0.00400347
0.00404113
0.00407822
0.00411471
0.00415057
0.00418578
0.00422032
0.00425416
0.00428728
0.00431967
0.00435129
0.00438212
0.00441216
0.00444138
0.00446976
0.00449728
0.00452394
0.0045497
0.00457457
0.00459853
0.00462156
0.00464366
0.00466481
0.004685
0.00470423
0.00472252
0.00473991
0.00475632
0.00477177
0.00478625
0.00479972
0.00481228
0.00482381
0.00483434
0.00484389
0.00485248
0.0048601
0.00486678
0.00487251
0.00487731
0.00488118
0.00488414
0.0048862
0.00488736
0.00488764
0.00488705
0.0048856
0.0048833
0.00488018
0.00487623
0.00487148
0.00486594
0.00485962
0.00485254
0.00484471
0.00483615
0.00482686
0.00481687
0.00480619
0.00479483
0.0047828
0.0047701
0.00475674
0.0047427
0.004728
0.00471268
0.00469677
0.00468031
0.00466336
0.00464597
0.00462822
0.00461019
0.00459197
0.00457364
0.00455529
0.00453689
0.00451804
0.00449758
0.00447413
9.10559e-06
9.8257e-05
0.000205889
0.000296904
0.000370707
0.000429948
0.000477799
0.000517195
0.000550501
0.000579573
0.000605862
0.000630332
0.000653678
0.000676338
0.000698884
0.000721646
0.00074485
0.000768695
0.000793239
0.000818491
0.000844485
0.000871259
0.000898843
0.000927257
0.000956495
0.000986526
0.00101734
0.00104892
0.00108125
0.00111429
0.00114799
0.00118233
0.00121725
0.00125271
0.00128867
0.00132509
0.00136193
0.00139915
0.00143672
0.00147459
0.00151275
0.00155116
0.00158979
0.00162861
0.00166772
0.00170704
0.00174645
0.00178591
0.00182543
0.00186503
0.00190472
0.00194452
0.00198443
0.00202447
0.00206463
0.00210492
0.00214535
0.00218594
0.00222668
0.00226758
0.00230865
0.00234989
0.00239132
0.00243293
0.00247473
0.00251671
0.00255889
0.00260126
0.00264383
0.00268658
0.00272951
0.00277262
0.00281591
0.00285935
0.00290295
0.00294669
0.00299055
0.00303453
0.00307861
0.00312276
0.00316698
0.00321123
0.00325551
0.00329978
0.00334402
0.00338821
0.00343233
0.00347634
0.00352022
0.00356394
0.00360748
0.0036508
0.00369388
0.00373668
0.00377918
0.00382136
0.00386317
0.00390459
0.00394559
0.00398615
0.00402623
0.0040658
0.00410485
0.00414333
0.00418123
0.00421852
0.00425517
0.00429115
0.00432644
0.00436102
0.00439486
0.00442794
0.00446025
0.00449175
0.00452243
0.00455226
0.00458125
0.00460935
0.00463657
0.00466288
0.00468827
0.00471273
0.00473624
0.00475881
0.0047804
0.00480104
0.00482071
0.00483942
0.00485717
0.00487399
0.00488984
0.00490471
0.00491869
0.00493155
0.00494339
0.00495427
0.00496417
0.00497311
0.0049811
0.00498814
0.00499425
0.00499942
0.00500368
0.00500704
0.00500949
0.00501107
0.00501177
0.00501162
0.00501062
0.00500878
0.00500612
0.00500266
0.00499839
0.00499335
0.00498754
0.00498097
0.00497366
0.00496562
0.00495687
0.0049474
0.00493725
0.00492641
0.0049149
0.00490272
0.00488987
0.00487637
0.00486223
0.0048475
0.0048322
0.00481639
0.00480012
0.00478348
0.00476653
0.00474938
0.00473214
0.0047149
0.00469768
0.00468017
0.00466147
0.00464101
9.43601e-06
9.97468e-05
0.00020925
0.000303018
0.000379739
0.00044205
0.000492832
0.000534936
0.000570615
0.00060161
0.000629239
0.00065479
0.000679167
0.000703096
0.000726956
0.000750986
0.000775381
0.000800274
0.000825698
0.000851753
0.000878497
0.000905962
0.000934168
0.000963121
0.000992813
0.00102323
0.00105434
0.00108611
0.00111853
0.00115155
0.00118515
0.00121929
0.00125393
0.00128903
0.00132454
0.00136043
0.00139665
0.00143318
0.00146999
0.00150704
0.00154429
0.00158168
0.00161928
0.00165718
0.00169537
0.0017336
0.00177188
0.00181016
0.0018484
0.00188666
0.00192496
0.00196335
0.00200184
0.00204043