/*--------------------------------*- C++ -*----------------------------------*\
  =========                 |
  \\      /  F ield         | OpenFOAM: The Open Source CFD Toolbox
   \\    /   O peration     | Website:  https://openfoam.org
    \\  /    A nd           | Version:  8
     \\/     M anipulation  |
\*---------------------------------------------------------------------------*/
FoamFile
{
    version     2.0;
    format      ascii;
    class       volScalarField;
    location    "287";
    object      p;
}
// * * * * * * * * * * * * * * * * * * * * * * * * * * * * * * * * * * * * * //

dimensions      [0 2 -2 0 0 0 0];

internalField   nonuniform List<scalar> 
12225
(
-1.31267
-3.50065
-4.60076
-4.92157
-5.10306
-5.27238
-5.40426
-5.4999
-5.57714
-5.64532
-5.70633
-5.7625
-5.81403
-5.86276
-5.90928
-5.94985
-6.00101
-5.98478
-4.47503
-5.24387
-5.40446
-5.31239
-5.30008
-5.36821
-5.44612
-5.51235
-5.57258
-5.6308
-5.6864
-5.73859
-5.78815
-5.83547
-5.88166
-5.92395
-5.97244
-6.01051
-4.87566
-4.86149
-4.98899
-5.06754
-5.16265
-5.28309
-5.39069
-5.476
-5.54842
-5.61453
-5.67561
-5.73176
-5.7845
-5.83429
-5.88271
-5.92795
-5.97878
-6.024
-4.75428
-4.69766
-4.9394
-5.09788
-5.19982
-5.30629
-5.40434
-5.48483
-5.55415
-5.61797
-5.67745
-5.73262
-5.7847
-5.83412
-5.88229
-5.92855
-5.97802
-6.02622
-4.74434
-4.76873
-4.99688
-5.13858
-5.22239
-5.3147
-5.40626
-5.4844
-5.55249
-5.6154
-5.67436
-5.7294
-5.78149
-5.83116
-5.8796
-5.9268
-5.97565
-6.02517
-4.80243
-4.85124
-5.02558
-5.14961
-5.2313
-5.31936
-5.40772
-5.48463
-5.5521
-5.61443
-5.67298
-5.72785
-5.77986
-5.82959
-5.87803
-5.92548
-5.97366
-6.02261
-4.86273
-4.90687
-5.04211
-5.15855
-5.24245
-5.32681
-5.41101
-5.48602
-5.55256
-5.61413
-5.67207
-5.7266
-5.77836
-5.82796
-5.87619
-5.92346
-5.97081
-6.01839
-4.91618
-4.95377
-5.06379
-5.17218
-5.25532
-5.33512
-5.41479
-5.4876
-5.55305
-5.61375
-5.671
-5.72508
-5.7765
-5.82583
-5.87369
-5.9205
-5.96685
-6.01279
-4.96581
-4.99893
-5.08991
-5.18795
-5.26816
-5.3437
-5.41909
-5.48949
-5.55364
-5.61334
-5.66977
-5.72327
-5.77422
-5.82311
-5.87043
-5.91652
-5.96174
-6.00597
-5.01277
-5.04203
-5.11759
-5.20488
-5.28119
-5.35288
-5.42419
-5.49192
-5.5545
-5.61303
-5.66849
-5.72124
-5.77155
-5.81982
-5.86643
-5.91162
-5.95559
-5.99814
-5.05698
-5.08248
-5.14572
-5.22295
-5.29473
-5.36266
-5.43004
-5.49491
-5.5557
-5.61289
-5.66724
-5.71906
-5.76858
-5.81606
-5.8618
-5.90594
-5.94862
-5.98956
-5.0949
-5.11725
-5.17148
-5.24036
-5.30755
-5.37202
-5.43596
-5.49814
-5.5571
-5.61293
-5.66613
-5.71698
-5.76562
-5.81226
-5.85708
-5.90018
-5.94165
-5.98121
-5.1299
-5.14963
-5.19648
-5.25789
-5.32043
-5.38149
-5.44217
-5.50168
-5.55873
-5.6131
-5.66508
-5.71486
-5.76254
-5.80824
-5.85208
-5.89412
-5.9344
-5.97266
-5.16654
-5.18374
-5.22377
-5.27781
-5.33515
-5.39235
-5.4495
-5.50602
-5.56081
-5.61342
-5.66391
-5.71237
-5.75885
-5.80339
-5.84605
-5.88685
-5.92581
-5.96271
-5.20358
-5.21836
-5.25237
-5.29946
-5.35134
-5.40432
-5.45777
-5.51107
-5.56328
-5.61382
-5.66254
-5.70943
-5.75446
-5.79762
-5.83891
-5.87831
-5.91585
-5.95135
-5.23902
-5.25165
-5.28058
-5.32152
-5.36806
-5.41673
-5.46643
-5.51641
-5.56585
-5.61408
-5.6608
-5.7059
-5.74927
-5.79086
-5.83062
-5.86853
-5.90459
-5.93868
-5.26997
-5.28084
-5.30578
-5.34169
-5.38353
-5.42819
-5.47435
-5.52118
-5.56784
-5.61369
-5.65832
-5.7015
-5.7431
-5.78301
-5.82118
-5.85756
-5.89215
-5.92489
-5.29206
-5.3017
-5.32394
-5.35636
-5.39474
-5.43629
-5.47962
-5.52384
-5.56813
-5.61184
-5.65451
-5.69588
-5.73577
-5.77407
-5.81071
-5.84563
-5.87885
-5.91033
-5.2984
-5.30755
-5.32873
-5.35982
-5.39683
-5.437
-5.47892
-5.52171
-5.56459
-5.6069
-5.6482
-5.68821
-5.72677
-5.76378
-5.79916
-5.83289
-5.86498
-5.89545
-5.28192
-5.29168
-5.31424
-5.34726
-5.38617
-5.42775
-5.47057
-5.51392
-5.5571
-5.59946
-5.64058
-5.68025
-5.71835
-5.75481
-5.78959
-5.8227
-5.85416
-5.88402
-5.25484
-5.26562
-5.29085
-5.32779
-5.37047
-5.41487
-5.45981
-5.50488
-5.54933
-5.59248
-5.63403
-5.6739
-5.71205
-5.74841
-5.78302
-5.81589
-5.84707
-5.87666
-5.21946
-5.23125
-5.26057
-5.30408
-5.35226
-5.40012
-5.44779
-5.49535
-5.54173
-5.58612
-5.62844
-5.66879
-5.70719
-5.74366
-5.77823
-5.811
-5.84203
-5.87145
-5.1788
-5.19067
-5.22508
-5.27828
-5.33372
-5.38556
-5.43631
-5.48659
-5.53493
-5.58062
-5.62386
-5.66485
-5.70364
-5.74031
-5.77495
-5.80772
-5.8387
-5.86805
-5.13503
-5.14597
-5.18769
-5.25204
-5.31412
-5.37067
-5.42616
-5.47986
-5.52995
-5.5766
-5.62053
-5.66203
-5.70111
-5.73788
-5.77254
-5.80527
-5.83619
-5.86544
-5.08808
-5.09352
-5.15612
-5.23425
-5.29609
-5.35422
-5.41523
-5.47343
-5.52579
-5.57367
-5.61851
-5.6606
-5.69996
-5.73682
-5.77147
-5.80413
-5.83498
-5.86419
-5.04479
-5.00832
-5.1178
-5.2287
-5.29085
-5.34602
-5.40809
-5.46768
-5.52075
-5.5693
-5.61485
-5.65748
-5.69717
-5.73424
-5.769
-5.80172
-5.8326
-5.86183
-5.05887
-4.89985
-5.02874
-5.18275
-5.27277
-5.34402
-5.41281
-5.47358
-5.52622
-5.57434
-5.61945
-5.66155
-5.70067
-5.73717
-5.77139
-5.80362
-5.83409
-5.86305
-5.18158
-5.00156
-5.01572
-5.0878
-5.17609
-5.27519
-5.36575
-5.43939
-5.50093
-5.55591
-5.60606
-5.65167
-5.69331
-5.73164
-5.76718
-5.80037
-5.83167
-5.86171
-4.88888
-5.48044
-5.56925
-5.44494
-5.39052
-5.41756
-5.46441
-5.5075
-5.54891
-5.59093
-5.63226
-5.67143
-5.70822
-5.74279
-5.7752
-5.80561
-5.83423
-5.86285
-1.90063
-3.66338
-4.66803
-4.9671
-5.11619
-5.2597
-5.37359
-5.45441
-5.51848
-5.57519
-5.62629
-5.67216
-5.71368
-5.75175
-5.78689
-5.8189
-5.84762
-5.8713
-6.72864
-6.72866
-6.72902
-6.72975
-6.73071
-6.73182
-6.73309
-6.73455
-6.73624
-6.7382
-6.74047
-6.74311
-6.74615
-6.74964
-6.75361
-6.75812
-6.7632
-6.76889
-6.77524
-6.7823
-6.79012
-6.79876
-6.80829
-6.81878
-6.83031
-6.84298
-6.85691
-6.8722
-6.88881
-6.90649
-6.92478
-6.94358
-6.96388
-6.98626
-7.00995
-7.03476
-7.06097
-7.08866
-7.11749
-7.14581
-7.17334
-7.19794
-7.21726
-7.23866
-7.26464
-7.292
-7.32053
-7.34973
-7.37938
-7.40933
-7.43943
-7.46956
-7.49961
-7.52949
-7.55909
-7.58831
-7.61704
-7.64519
-7.67263
-7.69926
-7.72496
-7.74959
-7.77303
-7.79513
-7.81576
-7.83477
-7.85199
-7.86727
-7.88044
-7.89133
-7.89976
-7.90555
-7.90851
-7.90846
-7.90519
-7.89853
-7.88827
-7.87422
-7.85617
-7.83394
-7.80732
-7.77613
-7.74015
-7.69923
-7.65316
-7.60178
-7.54489
-7.48234
-7.41396
-7.33959
-7.25913
-7.17242
-7.07935
-6.97976
-6.87363
-6.76102
-6.64206
-6.51652
-6.38383
-6.24385
-6.09683
-5.94284
-5.78191
-5.61407
-5.43934
-5.25778
-5.06944
-4.87439
-4.67273
-4.46457
-4.25002
-4.02923
-3.80234
-3.56951
-3.33093
-3.08678
-2.83727
-2.58261
-2.32303
-2.05879
-1.79013
-1.51732
-1.24062
-0.96032
-0.676689
-0.390034
-0.100657
0.191126
0.485013
0.780704
1.07789
1.37621
1.67532
1.97493
2.27472
2.57438
2.87358
3.172
3.46933
3.76527
4.05953
4.35182
4.64186
4.92938
5.21413
5.49585
5.77432
6.04929
6.32056
6.58792
6.85119
7.11018
7.36474
7.61471
7.85995
8.10034
8.33577
8.56614
8.79136
9.01136
9.2261
9.43552
9.6397
9.83865
10.0321
10.2199
10.4021
10.5786
10.7495
10.9148
11.0746
11.2288
11.3776
11.521
11.6592
11.7928
11.9229
12.051
12.1889
12.333
-6.72759
-6.72785
-6.72834
-6.729
-6.72965
-6.73021
-6.7308
-6.73156
-6.7326
-6.73398
-6.73572
-6.73787
-6.74044
-6.74346
-6.74696
-6.75097
-6.75552
-6.76067
-6.76646
-6.77295
-6.78019
-6.78824
-6.79718
-6.80704
-6.81789
-6.82974
-6.84258
-6.85632
-6.87084
-6.88612
-6.90243
-6.92062
-6.94027
-6.95999
-6.98009
-7.0005
-7.0211
-7.04237
-7.06365
-7.08627
-7.11059
-7.1381
-7.17319
-7.20889
-7.23985
-7.26989
-7.29967
-7.32946
-7.35935
-7.38933
-7.41935
-7.44934
-7.47922
-7.50891
-7.53833
-7.56737
-7.59595
-7.62395
-7.65128
-7.67782
-7.70346
-7.72807
-7.75151
-7.77367
-7.79438
-7.81351
-7.8309
-7.84639
-7.85981
-7.871
-7.87977
-7.88595
-7.88935
-7.88978
-7.88705
-7.88098
-7.87135
-7.85799
-7.84068
-7.81924
-7.79346
-7.76316
-7.72814
-7.68821
-7.6432
-7.59293
-7.53721
-7.47589
-7.40879
-7.33579
-7.25674
-7.17152
-7.08
-6.98204
-6.87754
-6.76636
-6.64829
-6.52322
-6.39134
-6.25277
-6.10734
-5.95501
-5.79577
-5.62963
-5.45661
-5.27676
-5.09014
-4.89681
-4.69687
-4.49041
-4.27756
-4.05844
-3.83321
-3.60202
-3.36504
-3.12248
-2.87451
-2.62137
-2.36326
-2.10045
-1.83318
-1.56171
-1.2863
-1.00723
-0.724774
-0.439235
-0.150916
0.139871
0.432825
0.727652
1.02404
1.32164
1.62011
1.91913
2.21842
2.51765
2.81649
3.11463
3.41176
3.70758
4.00179
4.2941
4.58423
4.87193
5.15692
5.43895
5.71779
5.99321
6.26499
6.53293
6.79683
7.05652
7.31183
7.5626
7.80869
8.04999
8.28637
8.51773
8.74399
8.96509
9.181
9.39166
9.59685
9.79627
9.98997
10.1781
10.3606
10.5375
10.7088
10.8746
11.0349
11.1896
11.339
11.4831
11.6223
11.757
11.8888
12.0188
12.1594
12.2982
-6.72395
-6.72484
-6.72611
-6.7272
-6.72789
-6.7283
-6.72867
-6.72917
-6.72994
-6.73106
-6.73257
-6.73451
-6.73689
-6.73976
-6.74312
-6.74702
-6.7515
-6.75659
-6.76234
-6.76881
-6.77605
-6.78412
-6.79307
-6.80294
-6.81377
-6.82559
-6.8384
-6.85215
-6.86679
-6.88229
-6.8988
-6.91655
-6.93549
-6.95528
-6.97596
-6.99735
-7.01916
-7.04149
-7.06428
-7.08754
-7.11137
-7.13666
-7.16497
-7.19479
-7.22427
-7.25369
-7.2831
-7.31254
-7.34202
-7.37155
-7.40108
-7.43056
-7.45993
-7.48911
-7.51804
-7.54661
-7.57474
-7.60234
-7.62929
-7.65549
-7.68083
-7.70518
-7.72841
-7.75039
-7.77098
-7.79003
-7.80739
-7.82291
-7.83641
-7.84772
-7.85668
-7.86311
-7.86681
-7.86761
-7.86531
-7.85973
-7.85066
-7.83791
-7.82129
-7.8006
-7.77564
-7.74623
-7.71216
-7.67326
-7.62933
-7.58021
-7.52571
-7.46566
-7.39991
-7.3283
-7.2507
-7.16698
-7.077
-6.98066
-6.87785
-6.76846
-6.65228
-6.52919
-6.39926
-6.26257
-6.11906
-5.96869
-5.81144
-5.64733
-5.47636
-5.29858
-5.11403
-4.92279
-4.72494
-4.52058
-4.30982
-4.09278
-3.86963
-3.6405
-3.40557
-3.16502
-2.91905
-2.66787
-2.4117
-2.15078
-1.88537
-1.61571
-1.34206
-1.06469
-0.783889
-0.499945
-0.213164
0.0761486
0.36769
0.661174
0.956284
1.25268
1.55002
1.848
2.14632
2.44465
2.74268
3.04008
3.33656
3.6318
3.92552
4.21741
4.50721
4.79465
5.07946
5.36139
5.6402
5.91566
6.18754
6.45566
6.7198
6.97978
7.23545
7.48663
7.73319
7.97499
8.21192
8.44387
8.67073
8.89242
9.10885
9.32
9.52582
9.72625
9.92124
10.1107
10.2946
10.4729
10.6455
10.8127
10.9743
11.1304
11.2812
11.4268
11.5676
11.7041
11.8383
11.9701
12.1129
12.2398
-6.71795
-6.7196
-6.72208
-6.72411
-6.72539
-6.72621
-6.72687
-6.72756
-6.72842
-6.72956
-6.73106
-6.73297
-6.73533
-6.73818
-6.74153
-6.74544
-6.74993
-6.75505
-6.76083
-6.76734
-6.7746
-6.78267
-6.7916
-6.80142
-6.81216
-6.82383
-6.83645
-6.84999
-6.86441
-6.87972
-6.89598
-6.91326
-6.93153
-6.95072
-6.97078
-6.99166
-7.01325
-7.0356
-7.05881
-7.08288
-7.10777
-7.13359
-7.16056
-7.18841
-7.21671
-7.24529
-7.27406
-7.30295
-7.33195
-7.36101
-7.39009
-7.41913
-7.44809
-7.47687
-7.50542
-7.53365
-7.56147
-7.58878
-7.61548
-7.64146
-7.66662
-7.69083
-7.71396
-7.73588
-7.75645
-7.77552
-7.79295
-7.80857
-7.82222
-7.83373
-7.84294
-7.84965
-7.85368
-7.85486
-7.85298
-7.84787
-7.83932
-7.82714
-7.81113
-7.7911
-7.76685
-7.73818
-7.70492
-7.66686
-7.62383
-7.57564
-7.52212
-7.46309
-7.3984
-7.32789
-7.25143
-7.16886
-7.08006
-6.98491
-6.88329
-6.77511
-6.66023
-6.53857
-6.41013
-6.27492
-6.1329
-5.98404
-5.82833
-5.66576
-5.49635
-5.32014
-5.13718
-4.94753
-4.75128
-4.54851
-4.33934
-4.1239
-3.90232
-3.67476
-3.44138
-3.20237
-2.95792
-2.70823
-2.45353
-2.19406
-1.93005
-1.66176
-1.38945
-1.11338
-0.833834
-0.551105
-0.265493
0.0226972
0.313171
0.605639
0.899776
1.19524
1.49172
1.78891
2.08649
2.38414
2.68155
2.97839
3.27437
3.56917
3.8625
4.15408
4.44362
4.73086
5.01552
5.29737
5.57614
5.85163
6.12359
6.39183
6.65615
6.91636
7.17229
7.42378
7.67068
7.91285
8.15017
8.38256
8.6099
8.83211
9.04911
9.26083
9.46727
9.66843
9.86425
10.0546
10.2394
10.4186
10.5922
10.7603
10.9228
11.0799
11.2317
11.3783
11.5202
11.6579
11.793
11.9247
12.0658
12.1788
-6.711
-6.71345
-6.71737
-6.72059
-6.7227
-6.72416
-6.72534
-6.72645
-6.72764
-6.72905
-6.73078
-6.73289
-6.73543
-6.73844
-6.74197
-6.74605
-6.75072
-6.75602
-6.762
-6.76868
-6.77613
-6.78438
-6.79348
-6.80345
-6.81432
-6.82612
-6.83884
-6.85247
-6.86701
-6.88246
-6.89882
-6.91611
-6.93431
-6.95338
-6.97326
-6.99392
-7.01533
-7.0375
-7.0605
-7.08438
-7.10914
-7.13479
-7.16127
-7.18841
-7.21602
-7.24398
-7.27219
-7.30059
-7.32913
-7.35778
-7.38646
-7.41514
-7.44375
-7.47222
-7.50047
-7.52843
-7.556
-7.5831
-7.60961
-7.63545
-7.66048
-7.6846
-7.70767
-7.72957
-7.75015
-7.76927
-7.78677
-7.8025
-7.81629
-7.82798
-7.83739
-7.84434
-7.84865
-7.85014
-7.8486
-7.84386
-7.83571
-7.82397
-7.80843
-7.78889
-7.76517
-7.73707
-7.7044
-7.66696
-7.62458
-7.57706
-7.52425
-7.46595
-7.40202
-7.33229
-7.25663
-7.17489
-7.08694
-6.99265
-6.89191
-6.78463
-6.67069
-6.55004
-6.42264
-6.28846
-6.14748
-5.99967
-5.845
-5.6835
-5.51516
-5.34002
-5.15814
-4.96958
-4.7744
-4.57272
-4.36463
-4.15027
-3.92976
-3.70326
-3.47094
-3.23297
-2.98955
-2.74087
-2.48717
-2.22867
-1.96562
-1.69826
-1.42684
-1.15165
-0.872943
-0.59103
-0.306202
-0.0187646
0.271004
0.562798
0.856284
1.15113
1.44704
1.74372
2.04083
2.33804
2.63505
2.93155
3.22721
3.52175
3.81487
4.10627
4.39568
4.68283
4.96745
5.24929
5.5281
5.80366
6.07574
6.34414
6.60864
6.86908
7.12526
7.37703
7.62425
7.86679
8.10451
8.33732
8.5651
8.78777
9.00525
9.21746
9.42435
9.62591
9.82213
10.0129
10.1981
10.3778
10.552
10.7205
10.8836
11.0412
11.1935
11.3407
11.4831
11.6211
11.7561
11.8864
12.024
12.1241
-6.70451
-6.70773
-6.713
-6.7174
-6.72041
-6.7226
-6.7244
-6.72604
-6.7277
-6.72953
-6.73163
-6.73408
-6.73696
-6.74029
-6.74414
-6.74853
-6.75352
-6.75914
-6.76543
-6.77243
-6.78019
-6.78875
-6.79815
-6.80841
-6.81957
-6.83163
-6.8446
-6.85849
-6.87327
-6.88894
-6.90549
-6.9229
-6.94115
-6.96023
-6.98009
-7.00071
-7.02209
-7.04422
-7.0671
-7.09074
-7.11516
-7.14035
-7.16626
-7.19277
-7.21978
-7.24719
-7.2749
-7.30287
-7.33102
-7.3593
-7.38766
-7.41604
-7.44438
-7.4726
-7.50063
-7.5284
-7.55581
-7.58277
-7.60917
-7.63493
-7.65991
-7.684
-7.70708
-7.729
-7.74964
-7.76884
-7.78645
-7.80232
-7.81627
-7.82814
-7.83775
-7.84493
-7.84949
-7.85125
-7.85001
-7.84557
-7.83776
-7.82636
-7.81119
-7.79205
-7.76873
-7.74105
-7.70882
-7.67183
-7.62992
-7.5829
-7.53058
-7.4728
-7.4094
-7.34022
-7.26511
-7.18395
-7.09658
-7.00289
-6.90277
-6.79612
-6.68285
-6.56288
-6.43618
-6.3027
-6.16242
-6.01531
-5.86135
-5.70056
-5.53293
-5.35852
-5.17736
-4.98952
-4.79508
-4.59412
-4.38677
-4.17313
-3.95335
-3.72757
-3.49596
-3.2587
-3.01598
-2.768
-2.51499
-2.25716
-1.99476
-1.72804
-1.45725
-1.18266
-0.904548
-0.623206
-0.338932
-0.0520189
0.237252
0.528562
0.821574
1.11598
1.41149
1.7078
2.00457
2.30147
2.59819
2.89443
3.18987
3.48422
3.77717
4.06845
4.35776
4.64484
4.92943
5.21127
5.49011
5.76573
6.0379
6.30641
6.57106
6.83167
7.08805
7.34006
7.58755
7.83036
8.06839
8.30151
8.52962
8.75263
8.97046
9.18301
9.39022
9.59207
9.78855
9.97958
10.1651
10.3451
10.5196
10.6885
10.8519
11.0099
11.1625
11.3099
11.4524
11.5903
11.7246
11.8528
11.987
12.0758
-6.69956
-6.70348
-6.70986
-6.71527
-6.71912
-6.72203
-6.72447
-6.72669
-6.72888
-6.73118
-6.73373
-6.73661
-6.7399
-6.74364
-6.74788
-6.75267
-6.75805
-6.76406
-6.77074
-6.77813
-6.78627
-6.79519
-6.80494
-6.81553
-6.827
-6.83935
-6.85259
-6.86671
-6.8817
-6.89756
-6.91425
-6.93177
-6.95008
-6.96917
-6.98903
-7.00962
-7.03096
-7.05302
-7.0758
-7.09929
-7.12348
-7.14835
-7.17384
-7.19991
-7.22648
-7.25346
-7.28079
-7.3084
-7.33624
-7.36425
-7.39236
-7.42053
-7.44868
-7.47674
-7.50464
-7.5323
-7.55963
-7.58653
-7.61291
-7.63865
-7.66366
-7.68779
-7.71093
-7.73294
-7.75368
-7.77301
-7.79076
-7.80678
-7.82091
-7.83297
-7.84279
-7.85018
-7.85497
-7.85696
-7.85597
-7.8518
-7.84425
-7.83313
-7.81824
-7.79938
-7.77636
-7.74898
-7.71706
-7.68039
-7.6388
-7.5921
-7.54011
-7.48267
-7.41961
-7.35078
-7.27603
-7.19522
-7.10822
-7.01491
-6.91518
-6.80893
-6.69607
-6.57653
-6.45026
-6.31722
-6.17737
-6.0307
-5.87718
-5.71683
-5.54965
-5.37569
-5.19498
-5.0076
-4.81362
-4.61313
-4.40624
-4.19307
-3.97376
-3.74846
-3.51732
-3.28053
-3.03828
-2.79077
-2.53822
-2.28085
-2.0189
-1.75262
-1.48227
-1.2081
-0.930405
-0.649469
-0.365592
-0.0790527
0.20985
0.500792
0.793448
1.08752
1.38273
1.67876
1.97526
2.27191
2.56841
2.86444
3.15969
3.45387
3.74668
4.03783
4.32705
4.61406
4.89859
5.1804
5.45924
5.73487
6.00708
6.27565
6.54039
6.80111
7.05763
7.30979
7.55745
7.80046
8.03868
8.27202
8.50036
8.72361
8.94167
9.15447
9.36192
9.564
9.76069
9.95194
10.1377
10.3179
10.4926
10.6618
10.8254
10.9836
11.1364
11.2839
11.4263
11.5637
11.6971
11.8229
11.954
12.0328
-6.69687
-6.70132
-6.70851
-6.71471
-6.71926
-6.72283
-6.72587
-6.72864
-6.73134
-6.73413
-6.73714
-6.74047
-6.74419
-6.74835
-6.75301
-6.75822
-6.76401
-6.77043
-6.77751
-6.7853
-6.79381
-6.8031
-6.81319
-6.8241
-6.83586
-6.84847
-6.86194
-6.87626
-6.89142
-6.90741
-6.92421
-6.94181
-6.96018
-6.9793
-6.99915
-7.01973
-7.04103
-7.06302
-7.08571
-7.10907
-7.13308
-7.15772
-7.18295
-7.20873
-7.235
-7.26169
-7.28875
-7.31613
-7.34376
-7.37159
-7.39955
-7.4276
-7.45565
-7.48364
-7.5115
-7.53913
-7.56646
-7.59339
-7.61981
-7.64563
-7.67071
-7.69495
-7.7182
-7.74035
-7.76123
-7.78071
-7.79863
-7.81483
-7.82914
-7.84139
-7.8514
-7.85899
-7.86398
-7.86618
-7.86538
-7.86141
-7.85406
-7.84314
-7.82845
-7.80979
-7.78696
-7.75978
-7.72804
-7.69156
-7.65015
-7.60363
-7.55183
-7.49457
-7.43169
-7.36304
-7.28847
-7.20784
-7.12103
-7.0279
-6.92836
-6.82231
-6.70966
-6.59033
-6.46429
-6.33147
-6.19184
-6.04539
-5.8921
-5.73197
-5.56503
-5.39131
-5.21085
-5.02372
-4.82999
-4.62976
-4.42314
-4.21025
-3.99121
-3.76619
-3.53534
-3.29884
-3.05689
-2.80967
-2.55742
-2.30036
-2.03871
-1.77272
-1.50266
-1.22879
-0.951388
-0.67074
-0.387142
-0.100874
0.187751
0.478412
0.770798
1.06462
1.3596
1.65541
1.95169
2.24814
2.54444
2.84029
3.13537
3.4294
3.72208
4.01311
4.30222
4.58913
4.87359
5.15534
5.43414
5.70976
5.98197
6.25056
6.51534
6.77611
7.0327
7.28496
7.53272
7.77584
8.0142
8.24768
8.47618
8.69959
8.91781
9.13078
9.33841
9.54067
9.73752
9.92894
10.1149
10.2953
10.4702
10.6395
10.8033
10.9616
11.1144
11.2618
11.404
11.5407
11.6729
11.7963
11.9246
11.9948
-6.69676
-6.70156
-6.70923
-6.71596
-6.72106
-6.72516
-6.72871
-6.73197
-6.73513
-6.73837
-6.74182
-6.74556
-6.74968
-6.75424
-6.75929
-6.76488
-6.77105
-6.77785
-6.7853
-6.79343
-6.80229
-6.8119
-6.82229
-6.83348
-6.84547
-6.85829
-6.87194
-6.8864
-6.90169
-6.91777
-6.93464
-6.95229
-6.97069
-6.98983
-7.00969
-7.03026
-7.05152
-7.07347
-7.09609
-7.11936
-7.14326
-7.16776
-7.19283
-7.21844
-7.24453
-7.27105
-7.29797
-7.32521
-7.35273
-7.38048
-7.40839
-7.4364
-7.46444
-7.49245
-7.52034
-7.54803
-7.57544
-7.60246
-7.629
-7.65493
-7.68016
-7.70454
-7.72796
-7.75026
-7.77132
-7.79098
-7.80908
-7.82545
-7.83994
-7.85236
-7.86254
-7.8703
-7.87545
-7.8778
-7.87715
-7.87332
-7.8661
-7.8553
-7.84072
-7.82216
-7.79942
-7.77232
-7.74066
-7.70424
-7.66289
-7.61642
-7.56466
-7.50744
-7.4446
-7.37597
-7.30143
-7.22084
-7.13405
-7.04095
-6.94144
-6.83542
-6.7228
-6.60353
-6.47753
-6.34476
-6.20518
-6.05879
-5.90555
-5.7455
-5.57862
-5.40498
-5.2246
-5.03757
-4.84395
-4.64383
-4.43733
-4.22457
-4.00567
-3.7808
-3.5501
-3.31377
-3.07198
-2.82495
-2.57289
-2.31601
-2.05455
-1.78877
-1.5189
-1.24524
-0.968041
-0.687603
-0.404205
-0.118147
0.170259
0.460698
0.752873
1.0465
1.34129
1.6369
1.933
2.22926
2.52539
2.82107
3.11599
3.40987
3.7024
3.9933
4.28229
4.5691
4.85347
5.13514
5.41388
5.68944
5.96162
6.23019
6.49496
6.75574
7.01236
7.26465
7.51246
7.75565
7.99409
8.22765
8.45624
8.67975
8.89809
9.11117
9.31893
9.52131
9.71829
9.90982
10.0959
10.2764
10.4514
10.6208
10.7847
10.943
11.0957
11.243
11.3847
11.5207
11.6515
11.7726
11.8984
11.961
-6.69927
-6.70421
-6.71208
-6.71909
-6.72454
-6.72903
-6.73298
-6.73663
-6.74018
-6.74379
-6.74759
-6.75168
-6.75614
-6.76103
-6.76641
-6.77233
-6.77882
-6.78592
-6.79367
-6.80209
-6.81121
-6.82107
-6.83168
-6.84306
-6.85523
-6.86819
-6.88195
-6.89651
-6.91186
-6.92799
-6.9449
-6.96257
-6.98098
-7.00012
-7.01998
-7.04054
-7.0618
-7.08373
-7.10632
-7.12955
-7.1534
-7.17784
-7.20285
-7.22838
-7.25441
-7.28088
-7.30774
-7.33495
-7.36246
-7.39022
-7.41816
-7.44622
-7.47433
-7.50243
-7.53043
-7.55825
-7.58579
-7.61296
-7.63966
-7.66576
-7.69116
-7.71572
-7.73932
-7.7618
-7.78304
-7.80287
-7.82113
-7.83767
-7.85231
-7.86487
-7.87518
-7.88305
-7.88831
-7.89074
-7.89017
-7.88639
-7.87922
-7.86845
-7.85388
-7.83532
-7.81257
-7.78544
-7.75374
-7.71727
-7.67585
-7.62931
-7.57747
-7.52016
-7.45721
-7.38849
-7.31385
-7.23314
-7.14624
-7.05304
-6.95343
-6.8473
-6.73459
-6.61522
-6.48913
-6.35628
-6.21663
-6.07016
-5.91686
-5.75674
-5.58983
-5.41614
-5.23574
-5.04869
-4.85507
-4.65496
-4.44848
-4.23575
-4.0169
-3.79208
-3.56146
-3.32521
-3.08352
-2.83659
-2.58464
-2.32789
-2.06656
-1.80092
-1.5312
-1.25769
-0.980656
-0.700381
-0.41715
-0.131273
0.156941
0.447191
0.739179
1.03262
1.32723
1.62265
1.91856
2.21464
2.51058
2.80608
3.10084
3.39455
3.68693
3.97768
4.26653
4.55321
4.83746
5.11902
5.39766
5.67314
5.94524
6.21375
6.47848
6.73922
6.99582
7.2481
7.49591
7.73911
7.97758
8.21118
8.43982
8.66338
8.88178
9.09493
9.30277
9.50524
9.7023
9.89391
10.08
10.2606
10.4357
10.6052
10.769
10.9273
11.0799
11.2269
11.3681
11.5032
11.6326
11.7515
11.8749
11.9312
-6.70419
-6.70911
-6.7169
-6.72397
-6.72959
-6.73432
-6.73853
-6.74245
-6.74628
-6.75017
-6.75424
-6.75859
-6.7633
-6.76844
-6.77406
-6.7802
-6.78691
-6.79422
-6.80216
-6.81076
-6.82005
-6.83006
-6.8408
-6.85229
-6.86455
-6.87758
-6.89139
-6.90599
-6.92136
-6.93751
-6.95443
-6.9721
-6.99051
-7.00966
-7.02953
-7.0501
-7.07136
-7.09331
-7.11591
-7.13915
-7.16301
-7.18746
-7.21248
-7.23804
-7.26409
-7.29059
-7.3175
-7.34477
-7.37236
-7.4002
-7.42825
-7.45643
-7.48468
-7.51293
-7.54109
-7.56908
-7.5968
-7.62415
-7.65103
-7.67732
-7.7029
-7.72764
-7.75141
-7.77406
-7.79545
-7.81542
-7.83381
-7.85046
-7.86519
-7.87783
-7.8882
-7.89612
-7.90139
-7.90383
-7.90324
-7.89942
-7.89219
-7.88135
-7.86668
-7.84801
-7.82514
-7.79787
-7.766
-7.72937
-7.68777
-7.64104
-7.58899
-7.53148
-7.46832
-7.39938
-7.32452
-7.24359
-7.15647
-7.06306
-6.96323
-6.8569
-6.74399
-6.62442
-6.49815
-6.36511
-6.22529
-6.07866
-5.92521
-5.76495
-5.59791
-5.42411
-5.24361
-5.05648
-4.86278
-4.66262
-4.45611
-4.24335
-4.0245
-3.79969
-3.56909
-3.33289
-3.09126
-2.8444
-2.59254
-2.33588
-2.07466
-1.80913
-1.53956
-1.26618
-0.989301
-0.709185
-0.426131
-0.140442
0.147577
0.437633
0.729419
1.02267
1.31708
1.6123
1.908
2.20387
2.49961
2.79491
3.08947
3.38298
3.67517
3.96574
4.25442
4.54093
4.82502
5.10643
5.38493
5.66028
5.93227
6.20067
6.4653
6.72597
6.9825
7.23472
7.48249
7.72567
7.96411
8.19771
8.42635
8.64992
8.86834
9.08153
9.2894
9.49192
9.68902
9.88068
10.0669
10.2475
10.4226
10.592
10.7559
10.914
11.0665
11.213
11.3537
11.4878
11.6158
11.7325
11.8539
11.9047
-6.71119
-6.71596
-6.72346
-6.73037
-6.73599
-6.7408
-6.74513
-6.74921
-6.7532
-6.75725
-6.76147
-6.76597
-6.77082
-6.77609
-6.78183
-6.78807
-6.79488
-6.80227
-6.81029
-6.81896
-6.82831
-6.83837
-6.84915
-6.86067
-6.87295
-6.886
-6.89982
-6.91442
-6.92978
-6.94593
-6.96283
-6.9805
-6.99892
-7.01807
-7.03796
-7.05856
-7.07986
-7.10185
-7.1245
-7.1478
-7.17173
-7.19626
-7.22135
-7.24698
-7.27311
-7.29972
-7.32674
-7.35415
-7.38188
-7.40988
-7.43809
-7.46644
-7.49486
-7.52329
-7.55163
-7.5798
-7.60771
-7.63524
-7.66229
-7.68875
-7.71448
-7.73936
-7.76326
-7.78602
-7.80749
-7.82753
-7.84598
-7.86265
-7.87739
-7.89001
-7.90034
-7.90819
-7.91338
-7.91571
-7.91499
-7.91102
-7.90362
-7.89258
-7.87771
-7.85881
-7.83569
-7.80816
-7.77603
-7.73911
-7.69722
-7.65019
-7.59785
-7.54002
-7.47655
-7.4073
-7.33212
-7.25089
-7.16347
-7.06976
-6.96964
-6.86303
-6.74984
-6.63001
-6.50348
-6.37021
-6.23016
-6.08331
-5.92967
-5.76923
-5.60202
-5.42807
-5.24744
-5.06019
-4.8664
-4.66617
-4.4596
-4.24681
-4.02794
-3.80313
-3.57256
-3.3364
-3.09483
-2.84806
-2.59629
-2.33974
-2.07865
-1.81327
-1.54384
-1.27064
-0.993934
-0.71401
-0.431164
-0.145692
0.142111
0.43194
0.723492
1.01651
1.31069
1.60566
1.9011
2.19672
2.49221
2.78726
3.08157
3.37485
3.6668
3.95714
4.24559
4.53188
4.81576
5.09698
5.37529
5.65046
5.92228
6.19053
6.45502
6.71556
6.97197
7.2241
7.47178
7.71488
7.95326
8.18681
8.41541
8.63896
8.85736
9.07054
9.27843
9.48096
9.67808
9.86976
10.0559
10.2366
10.4117
10.5811
10.7449
10.9029
11.0551
11.2012
11.3412
11.4743
11.6009
11.7157
11.835
11.8814
-6.71989
-6.72438
-6.73143
-6.73802
-6.74349
-6.74823
-6.75255
-6.75663
-6.76064
-6.76471
-6.76895
-6.77346
-6.77832
-6.78358
-6.78929
-6.79552
-6.8023
-6.80967
-6.81766
-6.8263
-6.83562
-6.84565
-6.85639
-6.86788
-6.88012
-6.89313
-6.90691
-6.92147
-6.9368
-6.95292
-6.96981
-6.98747
-7.00589
-7.02506
-7.04498
-7.06563
-7.08699
-7.10905
-7.13178
-7.15517
-7.17919
-7.20381
-7.22902
-7.25477
-7.28105
-7.30781
-7.335
-7.36258
-7.39049
-7.41867
-7.44705
-7.47558
-7.50417
-7.53276
-7.56126
-7.58958
-7.61763
-7.64529
-7.67245
-7.699
-7.72481
-7.74974
-7.77366
-7.79643
-7.81789
-7.83788
-7.85625
-7.87283
-7.88745
-7.89992
-7.91008
-7.91774
-7.9227
-7.92479
-7.92381
-7.91956
-7.91186
-7.90051
-7.8853
-7.86606
-7.84259
-7.81469
-7.78218
-7.74488
-7.70261
-7.65519
-7.60246
-7.54424
-7.48039
-7.41076
-7.33521
-7.25362
-7.16584
-7.07178
-6.97132
-6.86439
-6.7509
-6.63078
-6.50397
-6.37043
-6.23014
-6.08307
-5.92922
-5.7686
-5.60122
-5.42714
-5.24639
-5.05905
-4.86518
-4.6649
-4.4583
-4.2455
-4.02665
-3.80188
-3.57137
-3.3353
-3.09383
-2.84718
-2.59554
-2.33915
-2.07824
-1.81305
-1.54383
-1.27085
-0.994376
-0.71471
-0.432131
-0.146927
0.140602
0.430135
0.721398
1.01414
1.30801
1.60264
1.89777
2.19307
2.48824
2.78298
3.07699
3.36996
3.66161
3.95165
4.23981
4.52583
4.80944
5.09039
5.36846
5.64339
5.91499
6.18303
6.44732
6.70768
6.96393
7.21591
7.46345
7.70643
7.94471
8.17817
8.40669
8.63018
8.84853
9.06168
9.26954
9.47206
9.66917
9.86085
10.047
10.2277
10.4027
10.5721
10.7357
10.8936
11.0454
11.1911
11.3304
11.4625
11.5878
11.7006
11.818
11.8609
-6.72987
-6.73402
-6.74051
-6.74665
-6.75182
-6.75634
-6.76048
-6.76441
-6.76828
-6.77221
-6.77631
-6.78068
-6.78539
-6.79051
-6.79608
-6.80217
-6.80882
-6.81606
-6.82392
-6.83244
-6.84165
-6.85156
-6.8622
-6.87359
-6.88574
-6.89866
-6.91237
-6.92686
-6.94215
-6.95824
-6.97511
-6.99277
-7.0112
-7.03039
-7.05034
-7.07103
-7.09244
-7.11457
-7.13738
-7.16086
-7.18498
-7.20973
-7.23508
-7.261
-7.28743
-7.31435
-7.34171
-7.36945
-7.3975
-7.42582
-7.45433
-7.48296
-7.51165
-7.54033
-7.5689
-7.59727
-7.62534
-7.65301
-7.68016
-7.70666
-7.7324
-7.75724
-7.78103
-7.80365
-7.82492
-7.84471
-7.86285
-7.87917
-7.8935
-7.90567
-7.9155
-7.92281
-7.92741
-7.92912
-7.92774
-7.92308
-7.91496
-7.90317
-7.88753
-7.86785
-7.84393
-7.81558
-7.78263
-7.74488
-7.70216
-7.6543
-7.60113
-7.54249
-7.47822
-7.40818
-7.33225
-7.25027
-7.16213
-7.06772
-6.96693
-6.85968
-6.74589
-6.62549
-6.49843
-6.36466
-6.22415
-6.07689
-5.92287
-5.7621
-5.59461
-5.42043
-5.23961
-5.05222
-4.85834
-4.65806
-4.45149
-4.23876
-4.01998
-3.79533
-3.56495
-3.32903
-3.08774
-2.84129
-2.58988
-2.33373
-2.07307
-1.80815
-1.53923
-1.26656
-0.990422
-0.711102
-0.428866
-0.144009
0.143146
0.432292
0.723193
1.01557
1.30903
1.60325
1.89797
2.19287
2.48764
2.78198
3.07559
3.36818
3.65945
3.94912
4.23692
4.52258
4.80585
5.08647
5.36422
5.63885
5.91016
6.17793
6.44197
6.7021
6.95813
7.2099
7.45726
7.70008
7.93821
8.17154
8.39994
8.62333
8.84161
9.05469
9.2625
9.46498
9.66208
9.85373
10.0399
10.2205
10.3955
10.5648
10.7283
10.8859
11.0375
11.1827
11.3213
11.4524
11.5763
11.6874
11.8029
11.8429
-6.7408
-6.74457
-6.75043
-6.75602
-6.76074
-6.76488
-6.76867
-6.77226
-6.7758
-6.77942
-6.78322
-6.78729
-6.79171
-6.79655
-6.80187
-6.80771
-6.81411
-6.82112
-6.82877
-6.83709
-6.84611
-6.85585
-6.86633
-6.87758
-6.8896
-6.90241
-6.91601
-6.93042
-6.94563
-6.96164
-6.97846
-6.99607
-7.01448
-7.03367
-7.05363
-7.07433
-7.09578
-7.11795
-7.14083
-7.16441
-7.18865
-7.21352
-7.23898
-7.26499
-7.29152
-7.31852
-7.34594
-7.37371
-7.40179
-7.43011
-7.45859
-7.48719
-7.51581
-7.5444
-7.57287
-7.60111
-7.62903
-7.65652
-7.68345
-7.70972
-7.73519
-7.75973
-7.7832
-7.80546
-7.82637
-7.84577
-7.86349
-7.87938
-7.89327
-7.90498
-7.91434
-7.92116
-7.92527
-7.92648
-7.92459
-7.91943
-7.9108
-7.8985
-7.88235
-7.86216
-7.83774
-7.8089
-7.77545
-7.73723
-7.69404
-7.64573
-7.59211
-7.53304
-7.46837
-7.39794
-7.32164
-7.2393
-7.15083
-7.0561
-6.95502
-6.84751
-6.73347
-6.61285
-6.48559
-6.35165
-6.211
-6.06363
-5.90952
-5.7487
-5.58117
-5.40699
-5.2262
-5.03886
-4.84506
-4.64489
-4.43846
-4.22589
-4.00731
-3.78287
-3.55274
-3.31709
-3.07609
-2.82995
-2.57887
-2.32308
-2.0628
-1.79827
-1.52976
-1.25753
-0.981847
-0.702967
-0.421181
-0.136798
0.149859
0.438517
0.728959
1.02084
1.31377
1.60747
1.90168
2.19607
2.49034
2.78419
3.07731
3.36941
3.66021
3.94942
4.23676
4.52199
4.80483
5.08504
5.36239
5.63666
5.90761
6.17504
6.43876
6.69859
6.95434
7.20586
7.45299
7.69559
7.93354
8.16669
8.39495
8.61821
8.83638
9.04937
9.25712
9.45954
9.65659
9.8482
10.0343
10.2149
10.3898
10.559
10.7224
10.8798
11.031
11.1757
11.3136
11.4437
11.5664
11.6759
11.7895
11.8275
-6.75285
-6.75624
-6.76147
-6.76642
-6.77055
-6.7741
-6.77731
-6.78034
-6.78333
-6.78641
-6.7897
-6.7933
-6.79727
-6.80168
-6.8066
-6.81206
-6.81812
-6.82481
-6.83215
-6.84018
-6.84893
-6.85841
-6.86865
-6.87967
-6.89148
-6.90409
-6.91751
-6.93174
-6.9468
-6.96266
-6.97934
-6.99682
-7.01511
-7.03421
-7.0541
-7.07476
-7.09618
-7.11833
-7.1412
-7.16475
-7.18895
-7.21377
-7.23916
-7.26509
-7.2915
-7.31836
-7.34561
-7.3732
-7.40106
-7.42914
-7.45736
-7.48568
-7.51402
-7.54231
-7.57044
-7.59832
-7.62584
-7.65289
-7.67937
-7.70516
-7.73012
-7.75414
-7.77708
-7.79879
-7.81913
-7.83795
-7.85509
-7.87039
-7.88368
-7.8948
-7.90356
-7.90979
-7.91331
-7.91393
-7.91147
-7.90573
-7.89654
-7.88369
-7.86701
-7.8463
-7.82137
-7.79203
-7.75812
-7.71943
-7.67581
-7.62708
-7.57308
-7.51366
-7.44864
-7.3779
-7.30129
-7.21868
-7.12996
-7.03501
-6.93373
-6.82605
-6.71188
-6.59115
-6.46381
-6.32982
-6.18915
-6.04179
-5.88772
-5.72697
-5.55955
-5.3855
-5.20488
-5.01774
-4.82417
-4.62426
-4.41811
-4.20586
-3.98763
-3.76356
-3.53383
-3.2986
-3.05805
-2.81239
-2.5618
-2.30652
-2.04678
-1.78281
-1.51489
-1.24324
-0.968139
-0.689852
-0.408682
-0.124939
0.161069
0.449116
0.73896
1.03018
1.32243