/*--------------------------------*- C++ -*----------------------------------*\
  =========                 |
  \\      /  F ield         | OpenFOAM: The Open Source CFD Toolbox
   \\    /   O peration     | Website:  https://openfoam.org
    \\  /    A nd           | Version:  8
     \\/     M anipulation  |
\*---------------------------------------------------------------------------*/
FoamFile
{
    version     2.0;
    format      ascii;
    class       surfaceScalarField;
    location    "287";
    object      phi;
}
// * * * * * * * * * * * * * * * * * * * * * * * * * * * * * * * * * * * * * //

dimensions      [0 3 -1 0 0 0 0];

internalField   nonuniform List<scalar> 
24170
(
3.12889e-06
5.95163e-08
3.04664e-06
8.22485e-08
2.97355e-06
7.30908e-08
2.90491e-06
6.86362e-08
2.8406e-06
6.43184e-08
2.78329e-06
5.73087e-08
2.73398e-06
4.93065e-08
2.69205e-06
4.19304e-08
2.6564e-06
3.56451e-08
2.626e-06
3.04088e-08
2.59985e-06
2.6148e-08
2.57713e-06
2.27219e-08
2.55717e-06
1.99522e-08
2.53944e-06
1.77382e-08
2.52353e-06
1.59074e-08
2.50864e-06
1.48882e-08
2.49514e-06
1.34985e-08
1.75215e-08
2.47762e-06
3.45314e-06
2.36251e-08
3.45702e-06
7.83688e-08
3.45055e-06
7.95594e-08
3.4391e-06
8.00884e-08
3.42432e-06
7.90927e-08
3.40708e-06
7.45542e-08
3.38787e-06
6.85149e-08
3.36736e-06
6.24428e-08
3.34623e-06
5.67749e-08
3.32507e-06
5.15692e-08
3.30436e-06
4.68522e-08
3.28439e-06
4.26931e-08
3.26535e-06
3.89918e-08
3.24728e-06
3.58055e-08
3.2303e-06
3.28959e-08
3.21428e-06
3.08996e-08
3.19958e-06
2.81997e-08
2.92162e-08
3.18789e-06
3.66826e-06
1.78799e-08
3.67919e-06
6.74414e-08
3.68543e-06
7.33236e-08
3.68947e-06
7.60428e-08
3.69107e-06
7.74891e-08
3.69012e-06
7.5512e-08
3.68699e-06
7.16411e-08
3.68216e-06
6.72701e-08
3.67603e-06
6.29088e-08
3.66891e-06
5.86852e-08
3.6611e-06
5.46708e-08
3.65282e-06
5.09635e-08
3.64429e-06
4.75276e-08
3.63565e-06
4.44426e-08
3.62699e-06
4.15546e-08
3.61863e-06
3.9259e-08
3.61013e-06
3.67042e-08
3.56443e-08
3.6037e-06
3.92587e-06
1.7394e-08
3.93592e-06
5.73923e-08
3.94258e-06
6.66703e-08
3.94812e-06
7.04957e-08
3.95254e-06
7.30677e-08
3.9555e-06
7.25546e-08
3.95718e-06
6.99602e-08
3.95783e-06
6.6622e-08
3.95763e-06
6.31044e-08
3.95674e-06
5.95759e-08
3.95529e-06
5.61219e-08
3.95341e-06
5.28508e-08
3.95117e-06
4.97586e-08
3.9487e-06
4.69132e-08
3.94603e-06
4.42266e-08
3.94339e-06
4.18997e-08
3.94055e-06
3.95493e-08
3.7662e-08
3.93853e-06
4.20819e-06
1.63263e-08
4.21599e-06
4.95982e-08
4.22169e-06
6.09673e-08
4.2268e-06
6.53866e-08
4.23156e-06
6.83122e-08
4.23554e-06
6.85738e-08
4.23872e-06
6.67806e-08
4.24121e-06
6.41306e-08
4.24312e-06
6.11952e-08
4.24453e-06
5.81598e-08
4.24554e-06
5.51184e-08
4.24621e-06
5.21767e-08
4.24661e-06
4.93559e-08
4.24682e-06
4.67073e-08
4.24686e-06
4.41868e-08
4.24688e-06
4.18843e-08
4.24681e-06
3.96185e-08
3.74622e-08
4.24701e-06
4.51069e-06
1.47241e-08
4.51689e-06
4.33994e-08
4.52214e-06
5.5713e-08
4.52696e-06
6.05651e-08
4.53168e-06
6.35921e-08
4.53594e-06
6.43153e-08
4.53963e-06
6.30949e-08
4.5428e-06
6.09546e-08
4.54554e-06
5.84547e-08
4.54791e-06
5.57924e-08
4.54996e-06
5.30719e-08
4.55174e-06
5.03913e-08
4.55331e-06
4.77896e-08
4.55471e-06
4.53038e-08
4.55598e-06
4.29163e-08
4.55721e-06
4.06577e-08
4.55839e-06
3.84351e-08
3.6209e-08
4.55965e-06
4.83431e-06
1.31358e-08
4.83963e-06
3.80749e-08
4.84476e-06
5.0583e-08
4.84947e-06
5.58561e-08
4.85411e-06
5.89512e-08
4.85844e-06
5.99879e-08
4.86232e-06
5.92103e-08
4.8658e-06
5.74747e-08
4.86894e-06
5.53217e-08
4.87177e-06
5.296e-08
4.87434e-06
5.05019e-08
4.87669e-06
4.80392e-08
4.87886e-06
4.5621e-08
4.88089e-06
4.32764e-08
4.8828e-06
4.10014e-08
4.88466e-06
3.87995e-08
4.88648e-06
3.66185e-08
3.44042e-08
4.88828e-06
5.18103e-06
1.16845e-08
5.18576e-06
3.335e-08
5.19076e-06
4.55754e-08
5.19542e-06
5.11984e-08
5.20002e-06
5.43575e-08
5.20439e-06
5.56188e-08
5.20839e-06
5.52021e-08
5.21206e-06
5.38097e-08
5.21543e-06
5.1952e-08
5.21854e-06
4.98486e-08
5.22142e-06
4.76171e-08
5.22412e-06
4.53458e-08
5.22665e-06
4.30887e-08
5.22905e-06
4.08725e-08
5.23136e-06
3.87001e-08
5.23359e-06
3.65662e-08
5.23577e-06
3.44391e-08
3.22791e-08
5.23789e-06
5.55268e-06
1.03375e-08
5.55689e-06
2.91432e-08
5.5617e-06
4.0763e-08
5.56632e-06
4.65831e-08
5.57089e-06
4.97853e-08
5.57531e-06
5.12041e-08
5.57942e-06
5.10857e-08
5.58324e-06
4.99956e-08
5.58679e-06
4.84018e-08
5.5901e-06
4.65313e-08
5.59322e-06
4.45053e-08
5.59615e-06
4.24105e-08
5.59894e-06
4.03027e-08
5.6016e-06
3.82095e-08
5.60416e-06
3.61385e-08
5.60664e-06
3.40848e-08
5.60905e-06
3.20288e-08
2.9951e-08
5.61138e-06
5.95104e-06
9.07823e-09
5.95479e-06
2.5391e-08
5.95937e-06
3.6185e-08
5.96393e-06
4.20213e-08
5.96848e-06
4.52307e-08
5.97294e-06
4.67505e-08
5.97715e-06
4.68719e-08
5.9811e-06
4.60477e-08
5.98481e-06
4.46937e-08
5.9883e-06
4.30383e-08
5.9916e-06
4.12051e-08
5.99473e-06
3.92789e-08
5.99772e-06
3.73161e-08
6.00058e-06
3.53468e-08
6.00334e-06
3.33823e-08
6.006e-06
3.14223e-08
6.00857e-06
2.94563e-08
2.74819e-08
6.01104e-06
6.37798e-06
7.9084e-09
6.38135e-06
2.20259e-08
6.38568e-06
3.18521e-08
6.39017e-06
3.75298e-08
6.3947e-06
4.06996e-08
6.39918e-06
4.22704e-08
6.40348e-06
4.25733e-08
6.40755e-06
4.19768e-08
6.41141e-06
4.08401e-08
6.41506e-06
3.93849e-08
6.41853e-06
3.77354e-08
6.42183e-06
3.59738e-08
6.42499e-06
3.41565e-08
6.42803e-06
3.23159e-08
6.43094e-06
3.04673e-08
6.43375e-06
2.86156e-08
6.43645e-06
2.67579e-08
2.49042e-08
6.43902e-06
5.74176e-06
6.9824e-09
5.74434e-06
1.94422e-08
5.74782e-06
2.83796e-08
5.75155e-06
3.37976e-08
5.75536e-06
3.6892e-08
5.75915e-06
3.84724e-08
5.76284e-06
3.88845e-08
5.76637e-06
3.84487e-08
5.76973e-06
3.74782e-08
5.77294e-06
3.61817e-08
5.77599e-06
3.46812e-08
5.77891e-06
3.30571e-08
5.7817e-06
3.1365e-08
5.78438e-06
2.96387e-08
5.78695e-06
2.78967e-08
5.78942e-06
2.61481e-08
5.79178e-06
2.43947e-08
2.26555e-08
5.79403e-06
6.99914e-06
5.99862e-09
7.00187e-06
1.67082e-08
7.00564e-06
2.4612e-08
7.00981e-06
2.96262e-08
7.01414e-06
3.25666e-08
7.0185e-06
3.41123e-08
7.02278e-06
3.46045e-08
7.02691e-06
3.43176e-08
7.03087e-06
3.35152e-08
7.03467e-06
3.23872e-08
7.0383e-06
3.10509e-08
7.04177e-06
2.95831e-08
7.0451e-06
2.80376e-08
7.04829e-06
2.64495e-08
7.05135e-06
2.48398e-08
7.05427e-06
2.32219e-08
7.05706e-06
2.16017e-08
2.00044e-08
7.05972e-06
8.53188e-06
4.9649e-09
8.53474e-06
1.38514e-08
8.53877e-06
2.05773e-08
8.54338e-06
2.50231e-08
8.54824e-06
2.77053e-08
8.5532e-06
2.91534e-08
8.55812e-06
2.96801e-08
8.56292e-06
2.95163e-08
8.56756e-06
2.88752e-08
8.57203e-06
2.79213e-08
8.57632e-06
2.67625e-08
8.58043e-06
2.54707e-08
8.58437e-06
2.40964e-08
8.58815e-06
2.26744e-08
8.59176e-06
2.12279e-08
8.59521e-06
1.97732e-08
8.59849e-06
1.83195e-08
1.6895e-08
8.6016e-06
1.04003e-05
3.8906e-09
1.04033e-05
1.08911e-08
1.04075e-05
1.62976e-08
1.04126e-05
1.99976e-08
1.0418e-05
2.22928e-08
1.04236e-05
2.35598e-08
1.04292e-05
2.40589e-08
1.04347e-05
2.39775e-08
1.04401e-05
2.34799e-08
1.04453e-05
2.26993e-08
1.04504e-05
2.1729e-08
1.04552e-05
2.06328e-08
1.04599e-05
1.94562e-08
1.04643e-05
1.82321e-08
1.04685e-05
1.69837e-08
1.04726e-05
1.57287e-08
1.04764e-05
1.44779e-08
1.326e-08
1.04801e-05
1.26779e-05
2.78074e-09
1.2681e-05
7.82216e-09
1.26855e-05
1.17718e-08
1.26909e-05
1.4545e-08
1.26969e-05
1.63028e-08
1.27032e-05
1.72842e-08
1.27096e-05
1.76789e-08
1.27159e-05
1.76261e-08
1.27222e-05
1.72434e-08
1.27283e-05
1.66286e-08
1.27341e-05
1.58546e-08
1.27398e-05
1.49734e-08
1.27452e-05
1.40224e-08
1.27504e-05
1.30301e-08
1.27554e-05
1.20175e-08
1.27601e-05
1.10012e-08
1.27646e-05
9.99183e-09
9.01604e-09
1.27688e-05
1.54543e-05
1.62484e-09
1.54576e-05
4.59896e-09
1.54624e-05
6.94334e-09
1.54683e-05
8.60644e-09
1.5475e-05
9.66316e-09
1.5482e-05
1.02384e-08
1.54892e-05
1.04416e-08
1.54965e-05
1.03566e-08
1.55037e-05
1.00541e-08
1.55107e-05
9.594e-09
1.55176e-05
9.02326e-09
1.55242e-05
8.37688e-09
1.55305e-05
7.68125e-09
1.55366e-05
6.95688e-09
1.55424e-05
6.21979e-09
1.55479e-05
5.48316e-09
1.55531e-05
4.75525e-09
4.05884e-09
1.55581e-05
1.88389e-05
3.83042e-10
1.88424e-05
1.09763e-09
1.88477e-05
1.63918e-09
1.88543e-05
1.99229e-09
1.88618e-05
2.17766e-09
1.88698e-05
2.22295e-09
1.88781e-05
2.14993e-09
1.88865e-05
1.97844e-09
1.88948e-05
1.72876e-09
1.8903e-05
1.41943e-09
1.89109e-05
1.06602e-09
1.89186e-05
6.81506e-10
1.8926e-05
2.77031e-10
1.89331e-05
-1.37833e-10
1.89399e-05
-5.54939e-10
1.89463e-05
-9.66897e-10
1.89525e-05
-1.36937e-09
-1.7452e-09
1.89583e-05
2.29648e-05
-1.04548e-09
2.29688e-05
-2.97037e-09
2.2975e-05
-4.55944e-09
2.29828e-05
-5.77292e-09
2.29916e-05
-6.63074e-09
2.3001e-05
-7.21924e-09
2.30108e-05
-7.62581e-09
2.30207e-05
-7.90503e-09
2.30305e-05
-8.09347e-09
2.30402e-05
-8.22223e-09
2.30496e-05
-8.31489e-09
2.30586e-05
-8.38579e-09
2.30673e-05
-8.44272e-09
2.30757e-05
-8.48989e-09
2.30837e-05
-8.52931e-09
2.30913e-05
-8.56106e-09
2.30985e-05
-8.58579e-09
-8.59312e-09
2.31053e-05
1.68118e-05
-2.16658e-09
1.6815e-05
-6.13751e-09
1.68198e-05
-9.384e-09
1.68258e-05
-1.1763e-08
1.68325e-05
-1.33331e-08
1.68396e-05
-1.43223e-08
1.68469e-05
-1.49182e-08
1.68542e-05
-1.52244e-08
1.68615e-05
-1.532e-08
1.68685e-05
-1.52768e-08
1.68753e-05
-1.51476e-08
1.68819e-05
-1.4965e-08
1.68882e-05
-1.475e-08
1.68943e-05
-1.45161e-08
1.69e-05
-1.42721e-08
1.69055e-05
-1.40227e-08
1.69106e-05
-1.37713e-08
-1.35114e-08
1.69156e-05
1.46356e-05
-3.2432e-09
1.46387e-05
-9.22047e-09
1.46434e-05
-1.40935e-08
1.46492e-05
-1.74999e-08
1.46555e-05
-1.96114e-08
1.4662e-05
-2.08776e-08
1.46687e-05
-2.15689e-08
1.46753e-05
-2.18214e-08
1.46817e-05
-2.17658e-08
1.46879e-05
-2.15189e-08
1.4694e-05
-2.11559e-08
1.46997e-05
-2.07218e-08
1.47052e-05
-2.02464e-08
1.47104e-05
-1.97511e-08
1.47154e-05
-1.92492e-08
1.47201e-05
-1.87481e-08
1.47246e-05
-1.82528e-08
-1.77595e-08
1.47289e-05
1.27411e-05
-4.25124e-09
1.27443e-05
-1.2344e-08
1.27491e-05
-1.89199e-08
1.27547e-05
-2.31402e-08
1.27607e-05
-2.55844e-08
1.27669e-05
-2.70269e-08
1.2773e-05
-2.77306e-08
1.2779e-05
-2.78447e-08
1.27848e-05
-2.75767e-08
1.27904e-05
-2.70914e-08
1.27957e-05
-2.64787e-08
1.28008e-05
-2.579e-08
1.28056e-05
-2.50622e-08
1.28102e-05
-2.43212e-08
1.28145e-05
-2.35824e-08
1.28186e-05
-2.2854e-08
1.28225e-05
-2.21411e-08
-2.14408e-08
1.28262e-05
1.10918e-05
-5.09214e-09
1.1095e-05
-1.55624e-08
1.11001e-05
-2.4043e-08
1.11057e-05
-2.87602e-08
1.11115e-05
-3.13132e-08
1.11173e-05
-3.28322e-08
1.1123e-05
-3.34488e-08
1.11285e-05
-3.33452e-08
1.11337e-05
-3.28237e-08
1.11387e-05
-3.20816e-08
1.11435e-05
-3.12107e-08
1.11479e-05
-3.02675e-08
1.11522e-05
-2.92952e-08
1.11562e-05
-2.83223e-08
1.11599e-05
-2.73642e-08
1.11635e-05
-2.6429e-08
1.11669e-05
-2.55207e-08
-2.4637e-08
1.11701e-05
9.65581e-06
-5.69073e-09
9.65924e-06
-1.89886e-08
9.66458e-06
-2.93865e-08
9.67008e-06
-3.42533e-08
9.67563e-06
-3.68647e-08
9.68118e-06
-3.8383e-08
9.6865e-06
-3.87718e-08
9.69152e-06
-3.83622e-08
9.69625e-06
-3.75568e-08
9.70072e-06
-3.65496e-08
9.70493e-06
-3.54196e-08
9.70889e-06
-3.42261e-08
9.71261e-06
-3.30169e-08
9.71611e-06
-3.18213e-08
9.7194e-06
-3.06545e-08
9.72249e-06
-2.95237e-08
9.7254e-06
-2.8431e-08
-2.73727e-08
9.72814e-06
8.4053e-06
-5.63632e-09
8.40963e-06
-2.33241e-08
8.41487e-06
-3.46213e-08
8.41989e-06
-3.92763e-08
8.42525e-06
-4.22236e-08
8.43065e-06
-4.37826e-08
8.43573e-06
-4.38479e-08
8.44042e-06
-4.30581e-08
8.44478e-06
-4.19152e-08
8.44883e-06
-4.05952e-08
8.45257e-06
-3.91681e-08
8.45604e-06
-3.7696e-08
8.45926e-06
-3.62286e-08
8.46223e-06
-3.47936e-08
8.46498e-06
-3.34061e-08
8.46753e-06
-3.20726e-08
8.46989e-06
-3.07947e-08
-2.95691e-08
8.47209e-06
7.3145e-06
-2.85262e-09
7.32119e-06
-3.00121e-08
7.32674e-06
-4.01723e-08
7.33168e-06
-4.42205e-08
7.33707e-06
-4.76146e-08
7.34239e-06
-4.90959e-08
7.34726e-06
-4.87172e-08
7.35166e-06
-4.74619e-08
7.35563e-06
-4.58838e-08
7.35918e-06
-4.41409e-08
7.36232e-06
-4.23144e-08
7.3651e-06
-4.04768e-08
7.36755e-06
-3.86806e-08
7.36971e-06
-3.69502e-08
7.37161e-06
-3.53004e-08
7.37327e-06
-3.37346e-08
7.37473e-06
-3.22527e-08
-3.08454e-08
7.376e-06
6.36243e-06
4.78037e-09
6.37189e-06
-3.94739e-08
6.37932e-06
-4.75952e-08
6.38595e-06
-5.0854e-08
6.39223e-06
-5.38912e-08
6.39753e-06
-5.44029e-08
6.40182e-06
-5.30046e-08
6.40529e-06
-5.09349e-08
6.40809e-06
-4.8676e-08
6.41026e-06
-4.63173e-08
6.41189e-06
-4.39383e-08
6.41303e-06
-4.16153e-08
6.41374e-06
-3.93989e-08
6.4141e-06
-3.7308e-08
6.41416e-06
-3.53548e-08
6.41396e-06
-3.35375e-08
6.41356e-06
-3.18562e-08
-3.02898e-08
6.41301e-06
5.54129e-06
8.95193e-09
5.55032e-06
-4.85025e-08
5.55833e-06
-5.56068e-08
5.56604e-06
-5.85577e-08
5.57249e-06
-6.03483e-08
5.57681e-06
-5.87237e-08
5.57905e-06
-5.52405e-08
5.5796e-06
-5.14883e-08
5.57884e-06
-4.79163e-08
5.57705e-06
-4.4525e-08
5.57445e-06
-4.13376e-08
5.57123e-06
-3.83946e-08
5.56754e-06
-3.57041e-08
5.56349e-06
-3.32601e-08
5.55919e-06
-3.10544e-08
5.55473e-06
-2.90759e-08
5.55019e-06
-2.73249e-08
-2.5748e-08
5.54565e-06
4.86019e-06
-2.3631e-08
4.86538e-06
-5.36932e-08
4.86523e-06
-5.54568e-08
4.86217e-06
-5.54928e-08
4.85699e-06
-5.51734e-08
4.84948e-06
-5.12177e-08
4.83979e-06
-4.55435e-08
4.82839e-06
-4.00905e-08
4.81581e-06
-3.53334e-08
4.80252e-06
-3.12406e-08
4.78892e-06
-2.77328e-08
4.77527e-06
-2.47502e-08
4.76178e-06
-2.22128e-08
4.74858e-06
-2.00549e-08
4.73574e-06
-1.82208e-08
4.72335e-06
-1.66868e-08
4.71152e-06
-1.54893e-08
-1.51393e-08
4.70091e-06
4.17905e-06
4.12535e-06
4.0699e-06
4.0144e-06
3.95923e-06
3.90801e-06
3.86247e-06
3.82238e-06
3.78704e-06
3.7558e-06
3.72807e-06
3.70332e-06
3.68111e-06
3.66105e-06
3.64283e-06
3.62615e-06
3.61066e-06
3.59552e-06
1.07655e-08
-1.07909e-08
2.37833e-08
-1.30482e-08
3.32509e-08
-9.50505e-09
3.7679e-08
-4.45264e-09
3.69025e-08
7.41204e-10
3.15245e-08
5.35351e-09
2.24478e-08
9.04152e-09
1.06062e-08
1.18174e-08
-3.29089e-09
1.38638e-08
-1.87576e-08
1.54468e-08
-3.55372e-08
1.67528e-08
-5.34375e-08
1.78858e-08
-7.23898e-08
1.89315e-08
-9.23342e-08
1.99338e-08
-1.13261e-07
2.09108e-08
-1.35139e-07
2.18688e-08
-1.57956e-07
2.28063e-08
-1.81687e-07
2.37199e-08
-2.06301e-07
2.46034e-08
-2.31771e-07
2.545e-08
-2.58033e-07
2.62523e-08
-2.85067e-07
2.70038e-08
-3.12783e-07
2.77036e-08
-3.41177e-07
2.83547e-08
-3.7016e-07
2.89722e-08
-3.99759e-07
2.95599e-08
-4.29891e-07
3.01285e-08
-4.60712e-07
3.07917e-08
-4.92233e-07
3.15246e-08
-5.24428e-07
3.21806e-08
-5.57292e-07
3.28761e-08
-5.91171e-07
3.38799e-08
-6.2594e-07
3.47842e-08
-6.61344e-07
3.54172e-08
-6.97162e-07
3.58329e-08
-7.33019e-07
3.58734e-08
-7.69395e-07
3.63876e-08
-8.07884e-07
3.85019e-08
-8.50165e-07
4.22861e-08
-8.94837e-07
4.46793e-08
-9.38937e-07
4.40988e-08
-9.8716e-07
4.82254e-08
-1.03071e-06
4.35423e-08
-1.06485e-06
3.41472e-08
-1.10369e-06
3.88265e-08
-1.14519e-06
4.15003e-08
-1.18811e-06
4.29161e-08
-1.23164e-06
4.35311e-08
-1.27541e-06
4.3766e-08
-1.31921e-06
4.37955e-08
-1.36292e-06
4.37125e-08
-1.40648e-06
4.35587e-08
-1.44984e-06
4.33589e-08
-1.49297e-06
4.31265e-08
-1.53584e-06
4.28688e-08
-1.57844e-06
4.259e-08
-1.62073e-06
4.22915e-08
-1.66271e-06
4.19739e-08
-1.70435e-06
4.16364e-08
-1.74563e-06
4.12779e-08
-1.78653e-06
4.08967e-08
-1.82703e-06
4.04912e-08
-1.86709e-06
4.00594e-08
-1.9067e-06
3.95991e-08
-1.94581e-06
3.91087e-08
-1.9844e-06
3.8586e-08
-2.02243e-06
3.80297e-08
-2.05988e-06
3.74376e-08
-2.09669e-06
3.6809e-08
-2.13283e-06
3.61419e-08
-2.16827e-06
3.54358e-08
-2.20297e-06
3.46891e-08
-2.23687e-06
3.39018e-08
-2.26995e-06
3.30723e-08
-2.30215e-06
3.22012e-08
-2.33345e-06
3.12871e-08
-2.36378e-06
3.0331e-08
-2.39312e-06
2.9332e-08
-2.42142e-06
2.82913e-08
-2.44863e-06
2.7208e-08
-2.47472e-06
2.60836e-08
-2.49965e-06
2.49174e-08
-2.52336e-06
2.37112e-08
-2.54583e-06
2.24637e-08
-2.56701e-06
2.11769e-08
-2.58687e-06
1.98498e-08
-2.60535e-06
1.84841e-08
-2.62243e-06
1.70777e-08
-2.63806e-06
1.56309e-08
-2.6522e-06
1.41409e-08
-2.6648e-06
1.26031e-08
-2.67581e-06
1.10122e-08
-2.68517e-06
9.36265e-09
-2.69282e-06
7.64639e-09
-2.69868e-06
5.85006e-09
-2.70264e-06
3.95511e-09
-2.7046e-06
1.96021e-09
-2.70455e-06
-5.41278e-11
-2.70268e-06
-1.87702e-09
-2.69918e-06
-3.50544e-09
-2.6941e-06
-5.0937e-09
-2.68744e-06
-6.67089e-09
-2.6792e-06
-8.25026e-09
-2.66938e-06
-9.83452e-09
-2.65797e-06
-1.1422e-08
-2.64497e-06
-1.30125e-08
-2.63038e-06
-1.46026e-08
-2.6142e-06
-1.61922e-08
-2.59644e-06
-1.77779e-08
-2.57709e-06
-1.93598e-08
-2.55616e-06
-2.09343e-08
-2.53367e-06
-2.25016e-08
-2.50962e-06
-2.40579e-08
-2.48402e-06
-2.56035e-08
-2.45689e-06
-2.71344e-08
-2.42824e-06
-2.86511e-08
-2.39809e-06
-3.01493e-08
-2.36647e-06
-3.16294e-08
-2.33337e-06
-3.30872e-08
-2.29885e-06
-3.45239e-08
-2.26291e-06
-3.59362e-08
-2.2256e-06
-3.73242e-08
-2.18692e-06
-3.86832e-08
-2.14692e-06
-4.00128e-08
-2.10561e-06
-4.1308e-08
-2.06305e-06
-4.25705e-08
-2.01925e-06
-4.3797e-08
-1.97426e-06
-4.49901e-08
-1.9281e-06
-4.61456e-08
-1.88083e-06
-4.72651e-08
-1.83247e-06
-4.83463e-08
-1.78307e-06
-4.93871e-08
-1.73267e-06
-5.03788e-08
-1.68132e-06
-5.13288e-08
-1.62905e-06
-5.22371e-08
-1.57592e-06
-5.31009e-08
-1.52198e-06
-5.3916e-08
-1.46726e-06
-5.46841e-08
-1.41182e-06
-5.54042e-08
-1.35571e-06
-5.60768e-08
-1.29897e-06
-5.67012e-08
-1.24166e-06
-5.7277e-08
-1.18383e-06
-5.78045e-08
-1.12552e-06
-5.82831e-08
-1.06678e-06
-5.87135e-08
-1.00767e-06
-5.90951e-08
-9.48223e-07
-5.94292e-08
-8.88495e-07
-5.97152e-08
-8.2853e-07
-5.99549e-08
-7.68375e-07
-6.0148e-08
-7.08076e-07
-6.02968e-08
-6.47675e-07
-6.04008e-08
-5.87216e-07
-6.0463e-08
-5.2674e-07
-6.04828e-08
-4.66288e-07
-6.04631e-08
-4.05897e-07
-6.04034e-08
-3.45608e-07
-6.03062e-08
-2.85456e-07
-6.01704e-08
-2.2548e-07
-5.99985e-08
-1.65714e-07
-5.97893e-08
-1.06189e-07
-5.95519e-08
-4.6948e-08
-5.92666e-08
1.19198e-08
-5.88972e-08
7.04505e-08
-5.85579e-08
1.28629e-07
-5.82081e-08
1.86362e-07
-5.77606e-08
2.43652e-07
-5.73187e-08
3.00508e-07
-5.68842e-08
3.56931e-07
-5.64523e-08
4.12912e-07
-5.60096e-08
4.68423e-07
-5.55413e-08
5.23415e-07
-5.50206e-08
5.7779e-07
-5.44062e-08
6.31381e-07
-5.36208e-08
6.83871e-07
-5.25211e-08
7.34645e-07
-5.08043e-08
7.82388e-07
-4.77745e-08
8.23936e-07
-4.15775e-08
8.51157e-07
-2.7248e-08
1.78897e-08
8.33246e-07
8.89135e-09
-1.97019e-08
1.20025e-08
-1.61805e-08
1.04859e-08
-8.00786e-09
5.78999e-09
2.29854e-10
-1.42996e-09
7.94482e-09
-1.09608e-08
1.48719e-08
-2.27765e-08
2.08414e-08
-3.67863e-08
2.58155e-08
-5.2828e-08
2.98913e-08
-7.06437e-08
3.32523e-08
-9.00016e-08
3.60982e-08
-1.10724e-07
3.85996e-08
-1.32686e-07
4.0883e-08
-1.55791e-07
4.3032e-08
-1.79985e-07
4.5096e-08
-2.05225e-07
4.71026e-08
-2.3149e-07
4.90646e-08
-2.58764e-07
5.09871e-08
-2.87037e-07
5.28699e-08
-3.16309e-07
5.4711e-08
-3.46571e-07
5.65072e-08
-3.77841e-07
5.82574e-08
-4.1011e-07
5.99639e-08
-4.4341e-07
6.16335e-08
-4.77727e-07
6.32806e-08
-5.13108e-07
6.49216e-08
-5.49565e-07
6.65801e-08
-5.87082e-07
6.82943e-08
-6.25637e-07
7.00782e-08
-6.65369e-07
7.19069e-08
-7.06284e-07
7.3796e-08
-7.48134e-07
7.57329e-08
-7.9087e-07
7.75294e-08
-8.34479e-07
7.90352e-08
-8.78952e-07
8.03163e-08
-9.24595e-07
8.15274e-08
-9.71215e-07
8.3015e-08
-1.01769e-06
8.49823e-08
-1.06246e-06
8.70648e-08
-1.10618e-06
8.83986e-08
-1.15099e-06
8.89061e-08
-1.19209e-06
8.93275e-08
-1.23573e-06
8.71788e-08
-1.28547e-06
8.38867e-08
-1.33007e-06
8.34305e-08
-1.37211e-06
8.35314e-08
-1.4128e-06
8.36065e-08
-1.45277e-06
8.35006e-08
-1.49224e-06
8.32285e-08
-1.53128e-06
8.28365e-08
-1.56993e-06
8.2361e-08
-1.6082e-06
8.18261e-08
-1.64608e-06
8.12462e-08
-1.68359e-06
8.06297e-08
-1.7207e-06
7.99807e-08
-1.75741e-06
7.93005e-08
-1.79371e-06
7.85884e-08
-1.82958e-06
7.78427e-08
-1.86501e-06
7.70606e-08
-1.89998e-06
7.6239e-08
-1.93446e-06
7.53745e-08
-1.96843e-06
7.44634e-08
-2.00188e-06
7.35023e-08
-2.03477e-06
7.24875e-08
-2.06708e-06
7.14158e-08
-2.09878e-06
7.02841e-08
-2.12984e-06
6.90894e-08
-2.16024e-06
6.78293e-08
-2.18993e-06
6.65013e-08
-2.2189e-06
6.51035e-08
-2.2471e-06
6.36342e-08
-2.2745e-06
6.20918e-08
-2.30108e-06
6.04753e-08
-2.32679e-06
5.87837e-08
-2.35161e-06
5.70166e-08
-2.3755e-06
5.51734e-08
-2.39843e-06
5.32545e-08
-2.42036e-06
5.12597e-08
-2.44126e-06
4.91899e-08
-2.4611e-06
4.70452e-08
-2.47985e-06
4.48268e-08
-2.49747e-06
4.25351e-08
-2.51393e-06
4.01716e-08
-2.52921e-06
3.77368e-08
-2.54327e-06
3.52323e-08
-2.55608e-06
3.26589e-08
-2.56762e-06
3.0018e-08
-2.57785e-06
2.73101e-08
-2.58676e-06
2.45363e-08
-2.59431e-06
2.16965e-08
-2.60049e-06
1.87904e-08
-2.6053e-06
1.58191e-08
-2.60873e-06
1.27843e-08
-2.61077e-06
9.68981e-09
-2.61147e-06
6.54196e-09
-2.61087e-06
3.35938e-09
-2.6091e-06
1.83099e-10
-2.60622e-06
-2.93728e-09
-2.60208e-06
-6.01967e-09
-2.59648e-06
-9.10985e-09
-2.58937e-06
-1.22128e-08
-2.58072e-06
-1.53275e-08
-2.57052e-06
-1.84557e-08
-2.55877e-06
-2.15955e-08
-2.54546e-06
-2.47439e-08
-2.53059e-06
-2.78973e-08
-2.51415e-06
-3.1052e-08
-2.49614e-06
-3.42045e-08
-2.47658e-06
-3.7351e-08
-2.45545e-06
-4.04885e-08
-2.43278e-06
-4.3613e-08
-2.40857e-06
-4.67215e-08
-2.38282e-06
-4.98098e-08
-2.35555e-06
-5.2875e-08
-2.32678e-06
-5.5913e-08
-2.29651e-06
-5.89207e-08
-2.26476e-06
-6.1894e-08
-2.23156e-06
-6.48293e-08
-2.19693e-06
-6.77229e-08
-2.16088e-06
-7.05725e-08
-2.12344e-06
-7.33748e-08
-2.08464e-06
-7.61266e-08
-2.04451e-06
-7.88226e-08
-2.00307e-06
-8.14586e-08
-1.96035e-06
-8.40295e-08
-1.91639e-06
-8.65336e-08
-1.87122e-06
-8.8968e-08
-1.82487e-06
-9.13327e-08
-1.77739e-06
-9.36249e-08
-1.72881e-06
-9.58445e-08
-1.67916e-06
-9.79886e-08
-1.62848e-06
-1.0005e-07
-1.57683e-06
-1.02018e-07
-1.52425e-06
-1.03902e-07
-1.47077e-06
-1.05701e-07
-1.41644e-06
-1.07411e-07
-1.36131e-06
-1.09026e-07
-1.30543e-06
-1.10546e-07
-1.24885e-06
-1.1197e-07
-1.1916e-06
-1.13299e-07
-1.13375e-06
-1.14531e-07
-1.07535e-06
-1.15666e-07
-1.01643e-06
-1.16704e-07
-9.57058e-07
-1.17645e-07
-8.9727e-07
-1.18489e-07
-8.3712e-07
-1.19236e-07
-7.76654e-07
-1.19887e-07
-7.1592e-07
-1.20443e-07
-6.54965e-07
-1.20904e-07
-5.93836e-07
-1.21274e-07
-5.32578e-07
-1.21554e-07
-4.71235e-07
-1.21745e-07
-4.09849e-07
-1.2185e-07
-3.48463e-07
-1.21873e-07
-2.87117e-07
-1.21815e-07
-2.25849e-07
-1.21679e-07
-1.64698e-07
-1.21466e-07
-1.03698e-07
-1.2118e-07
-4.2884e-08
-1.20824e-07
1.77165e-08
-1.20402e-07
7.80754e-08
-1.19923e-07
1.38172e-07
-1.19377e-07
1.98e-07
-1.18739e-07
2.57453e-07
-1.18025e-07
3.16472e-07
-1.17241e-07
3.75102e-07
-1.16406e-07
4.33337e-07
-1.15568e-07
4.91172e-07
-1.14735e-07
5.48597e-07
-1.13894e-07
6.05598e-07
-1.13027e-07
6.62143e-07
-1.12102e-07
7.18176e-07
-1.11071e-07
7.73599e-07
-1.09847e-07
8.28245e-07
-1.08285e-07
8.81808e-07
-1.06103e-07
9.3375e-07
-1.02765e-07
9.83005e-07
-9.70485e-08
1.0279e-06
-8.64877e-08
1.06507e-06
-6.44338e-08
-1.20175e-08
1.09496e-06
4.15259e-10
-2.01309e-08
-5.3194e-09
-1.04599e-08
-1.37162e-08
3.77289e-10
-2.38076e-08
1.03139e-08
-3.52603e-08
1.93887e-08
-4.80107e-08
2.76154e-08
-6.2136e-08
3.49587e-08
-7.77331e-08
4.14061e-08
-9.486e-08
4.70103e-08
-1.13499e-07
5.18856e-08
-1.33586e-07
5.61784e-08
-1.55028e-07
6.00361e-08
-1.77736e-07
6.35848e-08
-2.0163e-07
6.69216e-08
-2.26654e-07
7.01147e-08
-2.52765e-07
7.32096e-08
-2.7994e-07
7.62346e-08
-3.08164e-07
7.92069e-08
-3.37433e-07
8.21354e-08
-3.67753e-07
8.50247e-08
-3.99126e-07
8.78765e-08
-4.31569e-07
9.06912e-08
-4.65079e-07
9.34693e-08
-4.99668e-07
9.62117e-08
-5.35311e-07
9.89194e-08
-5.71991e-07
1.01591e-07
-6.09636e-07
1.04223e-07
-6.48154e-07
1.06804e-07
-6.87396e-07
1.09321e-07
-7.27237e-07
1.11745e-07
-7.67493e-07
1.14055e-07
-8.07986e-07
1.16228e-07
-8.48636e-07
1.18185e-07
-8.89442e-07
1.19847e-07
-9.30378e-07
1.21259e-07
-9.71343e-07
1.22499e-07
-1.01199e-06
1.23671e-07
-1.05177e-06
1.24764e-07
-1.09029e-06
1.25584e-07
-1.1278e-06
1.25912e-07
-1.1646e-06
1.25703e-07
-1.20038e-06
1.25106e-07
-1.23699e-06
1.23787e-07
-1.27519e-06
1.22082e-07
-1.31264e-06
1.20878e-07
-1.34915e-06
1.20043e-07
-1.3849e-06
1.19359e-07
-1.4201e-06
1.18696e-07
-1.45487e-06
1.18003e-07
-1.4893e-06
1.17266e-07
-1.52343e-06
1.16486e-07
-1.55727e-06
1.15664e-07
-1.59083e-06
1.14804e-07
-1.6241e-06
1.13906e-07
-1.65709e-06
1.12968e-07
-1.68978e-06
1.11988e-07
-1.72216e-06
1.10963e-07
-1.75421e-06
1.09889e-07
-1.78591e-06
1.08761e-07
-1.81724e-06
1.07573e-07
-1.84819e-06
1.06321e-07
-1.87873e-06
1.04999e-07
-1.90883e-06
1.03603e-07
-1.93847e-06
1.02127e-07
-1.96763e-06
1.00568e-07
-1.99627e-06
9.89196e-08
-2.02436e-06
9.71794e-08
-2.05187e-06
9.53434e-08
-2.07878e-06
9.34086e-08
-2.10505e-06
9.13721e-08
-2.13065e-06
8.92316e-08
-2.15555e-06
8.69851e-08
-2.17971e-06
8.46311e-08
-2.20309e-06
8.21684e-08
-2.22567e-06
7.95962e-08
-2.24742e-06
7.69141e-08
-2.26829e-06
7.41222e-08
-2.28825e-06
7.12209e-08
-2.30727e-06
6.82107e-08
-2.32532e-06
6.50925e-08
-2.34237e-06
6.18676e-08
-2.35837e-06
5.85375e-08
-2.37331e-06
5.51037e-08
-2.38714e-06
5.15683e-08
-2.39984e-06
4.79333e-08
-2.41139e-06
4.4201e-08
-2.42175e-06
4.0374e-08
-2.43089e-06
3.64549e-08
-2.4388e-06
3.24468e-08
-2.44545e-06
2.83528e-08
-2.45084e-06
2.41764e-08
-2.45494e-06
1.99227e-08
-2.45776e-06
1.5599e-08
-2.45929e-06
1.12143e-08
-2.45953e-06
6.78101e-09
-2.45849e-06
2.31732e-09
-2.45616e-06
-2.15401e-09
-2.45247e-06
-6.62395e-09
-2.44738e-06
-1.11158e-08
-2.44084e-06
-1.56494e-08
-2.43284e-06
-2.02192e-08
-2.42336e-06
-2.48191e-08
-2.41238e-06
-2.94444e-08
-2.39989e-06
-3.40893e-08
-2.38589e-06
-3.87486e-08
-2.37038e-06
-4.34159e-08
-2.35335e-06
-4.80862e-08
-2.33481e-06
-5.27535e-08
-2.31475e-06
-5.74131e-08
-2.29319e-06
-6.2059e-08
-2.27012e-06
-6.66866e-08
-2.24555e-06
-7.12901e-08
-2.2195e-06
-7.58646e-08
-2.19197e-06
-8.04044e-08
-2.16299e-06
-8.49048e-08
-2.13255e-06
-8.93599e-08
-2.10068e-06
-9.37647e-08
-2.06739e-06
-9.81133e-08
-2.03271e-06
-1.02401e-07
-1.99666e-06
-1.06623e-07
-1.95926e-06
-1.10775e-07
-1.92054e-06
-1.14852e-07
-1.88052e-06
-1.18846e-07
-1.83924e-06
-1.22752e-07
-1.79671e-06
-1.26563e-07
-1.75297e-06
-1.30274e-07
-1.70805e-06
-1.33883e-07
-1.662e-06
-1.37387e-07
-1.61483e-06
-1.40784e-07
-1.5666e-06
-1.44072e-07
-1.51734e-06
-1.47247e-07
-1.46708e-06
-1.503e-07
-1.41587e-06
-1.5322e-07
-1.36376e-06
-1.56012e-07
-1.31077e-06
-1.58677e-07
-1.25696e-06
-1.61208e-07
-1.20238e-06
-1.63599e-07
-1.14706e-06
-1.65849e-07
-1.09107e-06
-1.67956e-07
-1.03443e-06
-1.6992e-07
-9.77213e-07
-1.7174e-07
-9.19454e-07
-1.73416e-07
-8.61203e-07
-1.74947e-07
-8.02509e-07
-1.76332e-07
-7.43419e-07
-1.77573e-07
-6.83981e-07
-1.78669e-07
-6.24241e-07
-1.79622e-07
-5.64248e-07
-1.80432e-07
-5.04047e-07
-1.81103e-07
-4.43683e-07
-1.81636e-07
-3.83201e-07
-1.82034e-07
-3.22645e-07
-1.82301e-07
-2.62057e-07
-1.82439e-07
-2.01477e-07
-1.82454e-07
-1.40946e-07
-1.82347e-07
-8.05009e-08
-1.82126e-07
-2.0175e-08
-1.81794e-07
3.99979e-08
-1.81355e-07
9.99819e-08
-1.80811e-07
1.59745e-07
-1.80168e-07
2.19254e-07
-1.79435e-07
2.78488e-07
-1.78614e-07
3.3744e-07
-1.77694e-07
3.96084e-07
-1.76671e-07
4.54391e-07
-1.75552e-07
5.12355e-07
-1.74373e-07
5.69957e-07
-1.73174e-07
6.27183e-07
-1.71964e-07
6.84017e-07
-1.70732e-07
7.40439e-07
-1.69452e-07
7.96415e-07
-1.68082e-07
8.51891e-07
-1.6655e-07
9.06773e-07
-1.64734e-07
9.60907e-07
-1.62423e-07
1.01403e-06
-1.59233e-07
1.06572e-06
-1.54454e-07
1.11529e-06
-1.46627e-07
1.16184e-06
-1.33046e-07
1.20495e-06
-1.07545e-07
-5.63315e-08
1.24926e-06
-7.46297e-09
-1.26792e-08
-1.9116e-08
1.18348e-09
-3.21061e-08
1.33596e-08
-4.59129e-08
2.41155e-08
-6.04422e-08
3.39125e-08
-7.57335e-08
4.29025e-08
-9.18992e-08
5.11192e-08
-1.09068e-07
5.85715e-08
-1.27355e-07
6.52921e-08
-1.46825e-07
7.13517e-08
-1.675e-07
7.68493e-08
-1.89363e-07
8.18955e-08
-2.12378e-07
8.65956e-08
-2.365e-07
9.10398e-08
-2.61687e-07
9.52988e-08
-2.87906e-07
9.94249e-08
-3.15127e-07
1.03454e-07
-3.43332e-07
1.07409e-07
-3.72502e-07
1.11304e-07
-4.02625e-07
1.15144e-07
-4.33679e-07
1.18929e-07
-4.65645e-07
1.22653e-07
-4.9848e-07
1.26304e-07
-5.32141e-07
1.29867e-07
-5.66543e-07
1.33321e-07
-6.01596e-07
1.36639e-07
-6.37165e-07
1.39792e-07
-6.73116e-07
1.42751e-07
-7.09283e-07
1.45491e-07
-7.45528e-07
1.47989e-07
-7.81703e-07
1.50233e-07
-8.17688e-07
1.52215e-07
-8.53416e-07
1.53916e-07
-8.88888e-07
1.55322e-07
-9.24078e-07
1.56452e-07
-9.58912e-07
1.57338e-07
-9.93244e-07
1.58005e-07
-1.02692e-06
1.58444e-07
-1.05994e-06
1.586e-07
-1.09243e-06
1.58408e-07
-1.12459e-06
1.57853e-07
-1.15647e-06
1.56992e-07
-1.18853e-06
1.55837e-07
-1.22097e-06
1.54526e-07
-1.25339e-06
1.53297e-07
-1.28555e-06
1.52203e-07
-1.3174e-06
1.51202e-07
-1.34895e-06
1.50244e-07
-1.38024e-06
1.49293e-07
-1.4113e-06
1.48327e-07
-1.44215e-06
1.47336e-07
-1.4728e-06
1.46311e-07
-1.50324e-06
1.45248e-07
-1.53348e-06
1.44142e-07
-1.5635e-06
1.42987e-07
-1.59329e-06
1.41778e-07
-1.62284e-06
1.40509e-07
-1.65212e-06
1.39172e-07
-1.68113e-06
1.37762e-07
-1.70983e-06
1.36272e-07
-1.7382e-06
1.34695e-07
-1.76623e-06
1.33024e-07
-1.79388e-06
1.31252e-07
-1.82113e-06
1.29375e-07
-1.84795e-06
1.27386e-07
-1.87431e-06
1.2528e-07
-1.90019e-06
1.23052e-07
-1.92554e-06
1.20697e-07
-1.95035e-06
1.18212e-07
-1.97457e-06
1.15593e-07
-1.99818e-06
1.12837e-07
-2.02113e-06
1.09942e-07
-2.04341e-06
1.06906e-07
-2.06497e-06
1.03727e-07
-2.08578e-06
1.00404e-07
-2.10581e-06
9.69383e-08
-2.12501e-06
9.33283e-08
-2.14337e-06
8.9575e-08
-2.16084e-06
8.56793e-08
-2.17739e-06
8.16425e-08
-2.19299e-06
7.74664e-08
-2.20761e-06
7.3153e-08
-2.22121e-06
6.87047e-08
-2.23377e-06
6.41245e-08
-2.24525e-06
5.94155e-08
-2.25563e-06
5.45812e-08
-2.26489e-06
4.96256e-08
-2.27299e-06
4.45531e-08
-2.27991e-06
3.93685e-08
-2.28563e-06
3.4077e-08
-2.29014e-06
2.86848e-08
-2.29342e-06
2.31992e-08
-2.29545e-06
1.76289e-08
-2.29622e-06
1.19843e-08
-2.29572e-06
6.27727e-09
-2.29392e-06
5.20713e-10
-2.29081e-06
-5.27436e-09
-2.28633e-06
-1.11075e-08
-2.28045e-06
-1.69907e-08
-2.27318e-06
-2.29307e-08
-2.26448e-06
-2.89217e-08
-2.25435e-06
-3.49559e-08
-2.24277e-06
-4.10255e-08
-2.22975e-06
-4.71224e-08
-2.21526e-06
-5.32391e-08
-2.19932e-06
-5.93674e-08
-2.18191e-06
-6.55003e-08
-2.16304e-06
-7.16301e-08
-2.1427e-06
-7.77501e-08
-2.12091e-06
-8.38527e-08
-2.09767e-06
-8.99315e-08
-2.07299e-06
-9.5979e-08
-2.04687e-06
-1.01989e-07
-2.01932e-06
-1.07953e-07
-1.99036e-06
-1.13866e-07
-1.96e-06
-1.1972e-07