/*--------------------------------*- C++ -*----------------------------------*\
  =========                 |
  \\      /  F ield         | OpenFOAM: The Open Source CFD Toolbox
   \\    /   O peration     | Website:  https://openfoam.org
    \\  /    A nd           | Version:  8
     \\/     M anipulation  |
\*---------------------------------------------------------------------------*/
FoamFile
{
    version     2.0;
    format      ascii;
    class       volVectorField;
    location    "287";
    object      U;
}
// * * * * * * * * * * * * * * * * * * * * * * * * * * * * * * * * * * * * * //

dimensions      [0 1 -1 0 0 0 0];

internalField   nonuniform List<vector> 
12225
(
(9.85699 -0.886638 0)
(9.6663 -0.740718 0)
(9.4558 -0.429421 0)
(9.22455 -0.222147 0)
(9.00655 -0.106401 0)
(8.81446 -0.0458204 0)
(8.64763 -0.015131 0)
(8.50547 0.000483207 0)
(8.38388 0.00840924 0)
(8.28117 0.0122944 0)
(8.19287 0.0139918 0)
(8.11681 0.0149911 0)
(8.05024 0.0153526 0)
(7.99145 0.0155018 0)
(7.93859 0.0156262 0)
(7.89278 0.0152589 0)
(7.83997 0.0180668 0)
(7.83115 0.0101643 0)
(10.0545 0.227708 0)
(10.1213 0.326964 0)
(10.1196 0.261651 0)
(10.0856 0.18659 0)
(10.0435 0.134693 0)
(9.99677 0.101129 0)
(9.94406 0.0792874 0)
(9.88535 0.0645612 0)
(9.82402 0.0542465 0)
(9.76156 0.0466494 0)
(9.70015 0.0408717 0)
(9.64041 0.0363033 0)
(9.5832 0.0326243 0)
(9.52894 0.0297196 0)
(9.47728 0.0271537 0)
(9.42983 0.0260822 0)
(9.3827 0.0226095 0)
(9.34749 0.0310424 0)
(10.0035 0.0581547 0)
(10.0305 0.0559492 0)
(10.056 0.0337734 0)
(10.0704 0.0328843 0)
(10.077 0.0406312 0)
(10.0779 0.0465262 0)
(10.0726 0.0493373 0)
(10.0615 0.0502775 0)
(10.0463 0.0501679 0)
(10.0279 0.0494449 0)
(10.0074 0.0483876 0)
(9.9853 0.0472038 0)
(9.96226 0.0459883 0)
(9.93874 0.04487 0)
(9.91499 0.0437445 0)
(9.89177 0.0431646 0)
(9.86873 0.0420704 0)
(9.84704 0.043424 0)
(9.99772 0.0109483 0)
(10.0111 0.0266185 0)
(10.035 0.0371203 0)
(10.0525 0.0480622 0)
(10.0644 0.0554295 0)
(10.0735 0.0581596 0)
(10.0796 0.0583249 0)
(10.0825 0.0575768 0)
(10.0829 0.0565189 0)
(10.0814 0.0553112 0)
(10.0784 0.0540221 0)
(10.0741 0.0527688 0)
(10.0688 0.0515422 0)
(10.0628 0.0504378 0)
(10.0561 0.0493522 0)
(10.0493 0.0486231 0)
(10.0424 0.0476616 0)
(10.0355 0.047451 0)
(9.99935 0.00709949 0)
(10.009 0.0316934 0)
(10.0275 0.0439048 0)
(10.0418 0.0499036 0)
(10.0528 0.0535899 0)
(10.0629 0.0552096 0)
(10.0716 0.0554829 0)
(10.0784 0.0551846 0)
(10.0836 0.0546299 0)
(10.0875 0.053911 0)
(10.0903 0.0530814 0)
(10.0923 0.0522338 0)
(10.0935 0.0513803 0)
(10.0942 0.0505877 0)
(10.0945 0.0498045 0)
(10.0945 0.0491923 0)
(10.0944 0.0484619 0)
(10.0943 0.0478883 0)
(10.0003 0.00914831 0)
(10.0083 0.031209 0)
(10.0227 0.0409408 0)
(10.035 0.0453794 0)
(10.0451 0.0490171 0)
(10.0548 0.0513441 0)
(10.0638 0.0523157 0)
(10.0715 0.0525375 0)
(10.078 0.0523889 0)
(10.0836 0.0520071 0)
(10.0885 0.0514664 0)
(10.0927 0.0508523 0)
(10.0964 0.0501968 0)
(10.0997 0.0495465 0)
(10.1026 0.0488809 0)
(10.1054 0.0482644 0)
(10.108 0.0475572 0)
(10.1106 0.046757 0)
(10.0005 0.00892242 0)
(10.0071 0.0271088 0)
(10.0191 0.0364105 0)
(10.0302 0.0413785 0)
(10.0396 0.0453915 0)
(10.0487 0.0480463 0)
(10.0573 0.0493031 0)
(10.065 0.0497581 0)
(10.0718 0.0498129 0)
(10.078 0.0496124 0)
(10.0835 0.0492331 0)
(10.0886 0.0487497 0)
(10.0933 0.0482022 0)
(10.0976 0.0476229 0)
(10.1017 0.0470048 0)
(10.1056 0.046364 0)
(10.1093 0.0456216 0)
(10.1131 0.0447058 0)
(10.0004 0.00789919 0)
(10.006 0.0233847 0)
(10.0161 0.0327303 0)
(10.0263 0.0380874 0)
(10.0352 0.0420702 0)
(10.0436 0.0447408 0)
(10.0518 0.0461369 0)
(10.0593 0.0467527 0)
(10.066 0.0469525 0)
(10.0723 0.0468801 0)
(10.078 0.0466128 0)
(10.0834 0.0462181 0)
(10.0885 0.0457389 0)
(10.0932 0.0451993 0)
(10.0977 0.0445977 0)
(10.1021 0.043929 0)
(10.1064 0.0431416 0)
(10.1105 0.0421666 0)
(10.0004 0.00694913 0)
(10.005 0.0204211 0)
(10.0137 0.0294442 0)
(10.0229 0.0348429 0)
(10.0312 0.0386813 0)
(10.0392 0.0413288 0)
(10.0469 0.0428436 0)
(10.0541 0.0435967 0)
(10.0607 0.0439108 0)
(10.0669 0.0439348 0)
(10.0727 0.0437483 0)
(10.0781 0.0434149 0)
(10.0833 0.0429772 0)
(10.0882 0.0424562 0)
(10.0928 0.0418526 0)
(10.0974 0.0411553 0)
(10.1018 0.0403275 0)
(10.1061 0.039323 0)
(10.0004 0.0061216 0)
(10.0043 0.0178499 0)
(10.0116 0.0262621 0)
(10.0199 0.0315584 0)
(10.0277 0.0352701 0)
(10.0352 0.0378806 0)
(10.0425 0.0394734 0)
(10.0494 0.0403275 0)
(10.0558 0.0407261 0)
(10.0618 0.0408211 0)
(10.0675 0.0406933 0)
(10.0729 0.0404027 0)
(10.0781 0.0399901 0)
(10.083 0.0394761 0)
(10.0877 0.0388635 0)
(10.0923 0.0381424 0)
(10.0966 0.0372869 0)
(10.1009 0.0362744 0)
(10.0003 0.00536322 0)
(10.0037 0.0155382 0)
(10.0099 0.0232204 0)
(10.0173 0.0283182 0)
(10.0245 0.0318871 0)
(10.0315 0.0344197 0)
(10.0384 0.0360361 0)
(10.045 0.0369524 0)
(10.0513 0.03741 0)
(10.0571 0.0375559 0)
(10.0627 0.0374706 0)
(10.068 0.0372101 0)
(10.0731 0.0368138 0)
(10.0779 0.0363026 0)
(10.0826 0.0356818 0)
(10.0871 0.0349457 0)
(10.0914 0.0340781 0)
(10.0956 0.0330746 0)
(10.0003 0.00469865 0)
(10.0032 0.0135965 0)
(10.0086 0.0205711 0)
(10.0152 0.0254025 0)
(10.0219 0.0288044 0)
(10.0286 0.0312303 0)
(10.0351 0.0328264 0)
(10.0414 0.0337679 0)
(10.0474 0.0342578 0)
(10.0531 0.0344339 0)
(10.0586 0.0343747 0)
(10.0638 0.0341333 0)
(10.0688 0.0337473 0)
(10.0735 0.0332381 0)
(10.0781 0.0326138 0)
(10.0825 0.0318736 0)
(10.0867 0.031008 0)
(10.0907 0.030027 0)
(10.0003 0.00408381 0)
(10.0028 0.0118267 0)
(10.0075 0.0180696 0)
(10.0134 0.0225586 0)
(10.0197 0.0257592 0)
(10.0259 0.0280531 0)
(10.0321 0.0295964 0)
(10.0381 0.0305362 0)
(10.0439 0.0310404 0)
(10.0495 0.0312336 0)
(10.0548 0.0311913 0)
(10.0598 0.0309636 0)
(10.0647 0.0305862 0)
(10.0694 0.0300812 0)
(10.0738 0.0294593 0)
(10.0781 0.028724 0)
(10.0822 0.0278719 0)
(10.0861 0.0269229 0)
(10.0002 0.00344861 0)
(10.0024 0.00998767 0)
(10.0064 0.0153867 0)
(10.0117 0.019408 0)
(10.0174 0.0223237 0)
(10.0232 0.0244259 0)
(10.029 0.0258659 0)
(10.0348 0.0267664 0)
(10.0403 0.0272604 0)
(10.0457 0.0274547 0)
(10.0508 0.0274189 0)
(10.0557 0.0271997 0)
(10.0604 0.0268303 0)
(10.065 0.0263329 0)
(10.0693 0.0257206 0)
(10.0734 0.0250013 0)
(10.0774 0.0241766 0)
(10.0812 0.0232734 0)
(10.0002 0.00278903 0)
(10.002 0.00807759 0)
(10.0055 0.0125327 0)
(10.0101 0.0159567 0)
(10.0153 0.0184853 0)
(10.0206 0.0203205 0)
(10.0261 0.0215933 0)
(10.0314 0.0224034 0)
(10.0367 0.0228511 0)
(10.0418 0.0230223 0)
(10.0468 0.0229776 0)
(10.0515 0.0227587 0)
(10.0561 0.0223957 0)
(10.0604 0.0219102 0)
(10.0646 0.0213167 0)
(10.0686 0.0206265 0)
(10.0724 0.0198449 0)
(10.076 0.0190025 0)
(10.0002 0.00210444 0)
(10.0017 0.00609854 0)
(10.0047 0.00951623 0)
(10.0088 0.0122095 0)
(10.0134 0.0142323 0)
(10.0183 0.0157081 0)
(10.0233 0.0167354 0)
(10.0283 0.0173895 0)
(10.0333 0.017742 0)
(10.0382 0.0178561 0)
(10.0429 0.0177802 0)
(10.0475 0.0175492 0)
(10.0518 0.0171886 0)
(10.056 0.0167182 0)
(10.06 0.0161526 0)
(10.0639 0.0155044 0)
(10.0675 0.014781 0)
(10.071 0.0140132 0)
(10.0002 0.00139198 0)
(10.0015 0.00403659 0)
(10.0041 0.00632142 0)
(10.0076 0.00815012 0)
(10.0118 0.00953681 0)
(10.0163 0.0105455 0)
(10.0209 0.0112366 0)
(10.0256 0.0116587 0)
(10.0303 0.0118567 0)
(10.035 0.0118716 0)
(10.0394 0.0117364 0)
(10.0438 0.0114767 0)
(10.048 0.0111118 0)
(10.052 0.0106575 0)
(10.0559 0.0101267 0)
(10.0595 0.00953098 0)
(10.063 0.00887759 0)
(10.0663 0.00819502 0)
(10.0001 0.000635373 0)
(10.0013 0.00184015 0)
(10.0036 0.00287643 0)
(10.0068 0.00369893 0)
(10.0107 0.00430893 0)
(10.0148 0.0047287 0)
(10.0192 0.00498095 0)
(10.0236 0.00508557 0)
(10.0281 0.00506194 0)
(10.0325 0.00492848 0)
(10.0368 0.00470095 0)
(10.0409 0.00439229 0)
(10.045 0.0040134 0)
(10.0488 0.00357387 0)
(10.0525 0.00308225 0)
(10.056 0.00254694 0)
(10.0593 0.00197321 0)
(10.0625 0.00138481 0)
(10.0001 -0.00020838 0)
(10.0012 -0.00061243 0)
(10.0034 -0.00099155 0)
(10.0065 -0.00133586 0)
(10.0102 -0.00164392 0)
(10.0143 -0.00192979 0)
(10.0185 -0.00221132 0)
(10.0228 -0.00250058 0)
(10.0271 -0.00280474 0)
(10.0313 -0.00312921 0)
(10.0355 -0.00347802 0)
(10.0395 -0.00385323 0)
(10.0434 -0.00425512 0)
(10.0471 -0.00468265 0)
(10.0507 -0.00513387 0)
(10.0541 -0.00560569 0)
(10.0573 -0.00609654 0)
(10.0603 -0.00658952 0)
(10.0001 -0.00101525 0)
(10.0013 -0.00296512 0)
(10.0037 -0.00470861 0)
(10.007 -0.00616484 0)
(10.0108 -0.00732985 0)
(10.015 -0.00826342 0)
(10.0193 -0.00902693 0)
(10.0237 -0.00966227 0)
(10.028 -0.0102036 0)
(10.0323 -0.0106821 0)
(10.0364 -0.0111225 0)
(10.0404 -0.011541 0)
(10.0442 -0.0119484 0)
(10.0479 -0.012352 0)
(10.0514 -0.0127563 0)
(10.0547 -0.0131634 0)
(10.0579 -0.0135754 0)
(10.0609 -0.0139814 0)
(10.0002 -0.00171093 0)
(10.0015 -0.00501948 0)
(10.0041 -0.00795688 0)
(10.0078 -0.0103195 0)
(10.012 -0.0121282 0)
(10.0164 -0.0135328 0)
(10.021 -0.0146394 0)
(10.0255 -0.0155052 0)
(10.03 -0.0161866 0)
(10.0343 -0.016742 0)
(10.0385 -0.0172157 0)
(10.0425 -0.017636 0)
(10.0464 -0.0180219 0)
(10.0501 -0.0183868 0)
(10.0536 -0.0187399 0)
(10.0569 -0.0190864 0)
(10.06 -0.0194303 0)
(10.063 -0.0197649 0)
(10.0002 -0.00237149 0)
(10.0016 -0.00704934 0)
(10.0047 -0.0112032 0)
(10.009 -0.0143829 0)
(10.0137 -0.0166889 0)
(10.0185 -0.0184318 0)
(10.0233 -0.0197716 0)
(10.0281 -0.0207791 0)
(10.0328 -0.0215356 0)
(10.0373 -0.0221219 0)
(10.0416 -0.0225945 0)
(10.0456 -0.0229897 0)
(10.0495 -0.0233338 0)
(10.0532 -0.0236462 0)
(10.0567 -0.0239397 0)
(10.06 -0.024222 0)
(10.0632 -0.0244983 0)
(10.0661 -0.0247643 0)
(10.0002 -0.00298929 0)
(10.0018 -0.00910548 0)
(10.0054 -0.0144731 0)
(10.0105 -0.0183713 0)
(10.0159 -0.0211233 0)
(10.0211 -0.0231531 0)
(10.0263 -0.0246159 0)
(10.0314 -0.025637 0)
(10.0362 -0.0263702 0)
(10.0409 -0.0269255 0)
(10.0452 -0.0273591 0)
(10.0494 -0.0277065 0)
(10.0533 -0.0279968 0)
(10.057 -0.0282524 0)
(10.0605 -0.0284873 0)
(10.0639 -0.0287098 0)
(10.067 -0.0289252 0)
(10.0699 -0.0291312 0)
(10.0001 -0.00353235 0)
(10.0018 -0.011561 0)
(10.0062 -0.017909 0)
(10.0123 -0.0220134 0)
(10.0183 -0.0250859 0)
(10.024 -0.0275011 0)
(10.0296 -0.0291449 0)
(10.035 -0.0301605 0)
(10.0401 -0.0308182 0)
(10.0448 -0.0312825 0)
(10.0493 -0.0316209 0)
(10.0536 -0.031874 0)
(10.0575 -0.0320754 0)
(10.0613 -0.0322489 0)
(10.0648 -0.0324079 0)
(10.0681 -0.0325597 0)
(10.0712 -0.0327078 0)
(10.0741 -0.0328486 0)
(9.99991 -0.00337563 0)
(10.0016 -0.0149917 0)
(10.0073 -0.0227495 0)
(10.0142 -0.0262629 0)
(10.0206 -0.0288524 0)
(10.0268 -0.0312217 0)
(10.0331 -0.0329472 0)
(10.039 -0.0340397 0)
(10.0444 -0.0347436 0)
(10.0494 -0.0352112 0)
(10.054 -0.0355126 0)
(10.0583 -0.0357021 0)
(10.0623 -0.0358255 0)
(10.0659 -0.0359139 0)
(10.0693 -0.035985 0)
(10.0725 -0.0360489 0)
(10.0754 -0.0361103 0)
(10.0781 -0.0361676 0)
(9.99859 -0.00038243 0)
(9.99903 -0.0158012 0)
(10.0076 -0.0274447 0)
(10.0166 -0.0325044 0)
(10.0238 -0.0348836 0)
(10.0306 -0.036243 0)
(10.0376 -0.0369986 0)
(10.0441 -0.0374695 0)
(10.0498 -0.0378219 0)
(10.0549 -0.0380722 0)
(10.0595 -0.03822 0)
(10.0635 -0.0382902 0)
(10.0671 -0.0383127 0)
(10.0702 -0.0383089 0)
(10.073 -0.0382937 0)
(10.0754 -0.0382757 0)
(10.0776 -0.0382585 0)
(10.0794 -0.0382401 0)
(9.99487 0.00140521 0)
(9.99287 -0.00812623 0)
(10.006 -0.0203362 0)
(10.0202 -0.0322712 0)
(10.0306 -0.0404807 0)
(10.0392 -0.0441575 0)
(10.0467 -0.0450741 0)
(10.0529 -0.0449339 0)
(10.0577 -0.0444707 0)
(10.0616 -0.0438775 0)
(10.0646 -0.0432354 0)
(10.0667 -0.0426006 0)
(10.0682 -0.0420075 0)
(10.069 -0.0414646 0)
(10.0693 -0.0409805 0)
(10.0692 -0.0405532 0)
(10.0687 -0.0401792 0)
(10.0679 -0.0398321 0)
(9.9947 -0.0305776 0)
(9.99943 -0.0228517 0)
(10.0146 -0.00262296 0)
(10.0304 -0.00190575 0)
(10.0434 -0.0116598 0)
(10.0533 -0.020928 0)
(10.0594 -0.027289 0)
(10.0618 -0.0315187 0)
(10.0615 -0.0342959 0)
(10.059 -0.0359942 0)
(10.055 -0.0369278 0)
(10.0497 -0.0373627 0)
(10.0434 -0.037489 0)
(10.0364 -0.0374273 0)
(10.0288 -0.0372663 0)
(10.0209 -0.0370639 0)
(10.0127 -0.0368833 0)
(10.0045 -0.0366918 0)
(10.0274 -0.183007 0)
(10.0766 -0.288325 0)
(10.0871 -0.247823 0)
(10.0777 -0.186561 0)
(10.0663 -0.140326 0)
(10.0537 -0.108246 0)
(10.0365 -0.0858997 0)
(10.0145 -0.0704418 0)
(9.98933 -0.0596709 0)
(9.96229 -0.0518948 0)
(9.9343 -0.0460722 0)
(9.90597 -0.0415743 0)
(9.87779 -0.0380178 0)
(9.85007 -0.0351411 0)
(9.82307 -0.0327775 0)
(9.79689 -0.0308532 0)
(9.77178 -0.0293336 0)
(9.74778 -0.0285165 0)
(9.93575 0.689541 0)
(9.86827 0.609594 0)
(9.76458 0.380605 0)
(9.62661 0.21741 0)
(9.48586 0.119241 0)
(9.35716 0.0631579 0)
(9.24263 0.0315455 0)
(9.14104 0.0135937 0)
(9.05136 0.00323989 0)
(8.97237 -0.00282082 0)
(8.90245 -0.00637417 0)
(8.84026 -0.00849244 0)
(8.78454 -0.0097389 0)
(8.73442 -0.0104968 0)
(8.68898 -0.0109775 0)
(8.64762 -0.0112535 0)
(8.60942 -0.0114775 0)
(8.57407 -0.0121156 0)
(0.00459103 -0.0107007 -8.2997e-19)
(0.0159678 -0.017109 7.31179e-19)
(0.0259642 -0.0149426 0)
(0.0323673 -0.00894321 0)
(0.0342177 -0.00193823 0)
(0.0313026 0.00440572 -3.85672e-19)
(0.0246832 0.0092848 0)
(0.0152205 0.0126265 0)
(0.00362423 0.0147341 0)
(-0.00954147 0.0160098 0)
(-0.0239433 0.0168401 2.32199e-19)
(-0.0394197 0.0174969 0)
(-0.0558657 0.0181133 0)
(-0.0732308 0.0187392 0)
(-0.0914899 0.0193789 0)
(-0.110627 0.020017 1.25477e-19)
(-0.130625 0.0206269 0)
(-0.15147 0.0211779 0)
(-0.173139 0.0216358 0)
(-0.195607 0.0219683 0)
(-0.218837 0.0221482 0)
(-0.242796 0.0221612 0)
(-0.267432 0.0220158 0)
(-0.292705 0.0217479 7.27276e-20)
(-0.318569 0.0214288 -6.90636e-20)
(-0.345002 0.0211238 6.56972e-20)
(-0.372004 0.0209583 6.25628e-20)
(-0.399597 0.0214481 0)
(-0.427858 0.0226089 0)
(-0.456826 0.0241058 -5.52798e-20)
(-0.486326 0.026215 -5.35599e-20)
(-0.516372 0.0293321 0)
(-0.547384 0.0317601 0)
(-0.579405 0.0332462 -5.0132e-20)
(-0.611895 0.0345926 0)
(-0.644804 0.0361695 0)
(-0.677877 0.0412241 4.63799e-20)
(-0.711659 0.0525049 0)
(-0.748105 0.0690721 4.53411e-20)
(-0.788138 0.0808607 8.94313e-20)
(-0.830713 0.0837343 0)
(-0.870987 0.0986995 0)
(-0.910465 0.0760232 0)
(-0.950302 0.0292949 0)
(-0.98286 0.0305799 0)
(-1.01981 0.0325214 1.14766e-19)
(-1.05871 0.0338434 1.11375e-19)
(-1.09868 0.034278 1.08203e-19)
(-1.13906 0.0343564 0)
(-1.17961 0.0342333 -1.02452e-19)
(-1.22018 0.0340147 0)
(-1.26071 0.033734 9.73928e-20)
(-1.30113 0.0334181 9.50871e-20)
(-1.34141 0.0330783 0)
(-1.38153 0.0327224 0)
(-1.42147 0.0323544 0)
(-1.4612 0.0319761 8.70761e-20)
(-1.50072 0.0315884 0)
(-1.54 0.0311909 0)
(-1.57902 0.030783 0)
(-1.61777 0.0303638 0)
(-1.65622 0.029932 0)
(-1.69435 0.0294864 0)
(-1.73214 0.0290256 0)
(-1.76955 0.0285486 0)
(-1.80657 0.028054 -7.38751e-20)
(-1.84315 0.0275411 0)
(-1.87927 0.0270088 0)
(-1.91489 0.0264566 7.04193e-20)
(-1.94998 0.0258836 6.93385e-20)
(-1.9845 0.0252896 0)
(-2.01841 0.024674 -6.72659e-20)
(-2.05168 0.024037 6.62688e-20)
(-2.08427 0.0233779 0)
(-2.11613 0.0226975 -6.43401e-20)
(-2.14724 0.0219952 0)
(-2.17753 0.0212721 0)
(-2.20699 0.020528 6.15772e-20)
(-2.23556 0.019764 0)
(-2.2632 0.0189797 -5.97976e-20)
(-2.28987 0.0181764 0)
(-2.31554 0.017354 5.80497e-20)
(-2.34016 0.0165136 5.71833e-20)
(-2.3637 0.0156547 5.63194e-20)
(-2.38611 0.0147784 1.10913e-19)
(-2.40735 0.0138839 -1.09186e-19)
(-2.42738 0.0129713 0)
(-2.44617 0.0120385 0)
(-2.46367 0.0110836 0)
(-2.47984 0.010102 -1.02206e-19)
(-2.49463 0.00908787 -1.00429e-19)
(-2.50801 0.00803372 9.86347e-20)
(-2.51991 0.00693037 0)
(-2.53026 0.00576759 -9.49869e-20)
(-2.539 0.00454018 -9.31303e-20)
(-2.54605 0.00326304 -9.12523e-20)
(-2.55133 0.00199013 0)
(-2.5547 0.000812522 0)
(-2.5561 -0.000192763 0)
(-2.55608 -0.00108452 -8.33926e-20)
(-2.55453 -0.0019514 0)
(-2.55151 -0.0028059 0)
(-2.547 -0.00365525 7.69844e-20)
(-2.541 -0.00450025 0)
(-2.53351 -0.00534047 0)
(-2.5245 -0.0061757 7.00796e-20)
(-2.51398 -0.00700468 0)
(-2.50194 -0.00782745 0)
(-2.48838 -0.00864274 -6.26111e-20)
(-2.4733 -0.00945074 -5.99845e-20)
(-2.45669 -0.0102501 0)
(-2.43855 -0.011041 5.45096e-20)
(-2.4189 -0.0118222 0)
(-2.39774 -0.0125938 -4.87206e-20)
(-2.37507 -0.0133544 0)
(-2.3509 -0.0141045 -4.25936e-20)
(-2.32525 -0.0148426 -3.93954e-20)
(-2.29811 -0.015569 0)
(-2.26952 -0.0162825 0)
(-2.23947 -0.0169839 0)
(-2.208 -0.0176719 0)
(-2.17513 -0.0183468 0)
(-2.14086 -0.0190069 0)
(-2.10523 -0.0196523 0)
(-2.06825 -0.0202816 -1.00902e-20)
(-2.02995 -0.0208961 5.89723e-21)
(-1.99036 -0.0214951 0)
(-1.94951 -0.0220806 0)
(-1.90742 -0.0226506 0)
(-1.86412 -0.0232048 0)
(-1.81965 -0.0237426 -3.44309e-20)
(-1.77404 -0.0242646 0)
(-1.72733 -0.0247702 5.51943e-20)
(-1.67955 -0.0252634 -6.61286e-20)
(-1.63075 -0.0257403 0)
(-1.58095 -0.0262007 0)
(-1.5302 -0.0266456 0)
(-1.47855 -0.0270756 1.14033e-19)
(-1.42602 -0.0274906 1.27174e-19)
(-1.37268 -0.0278916 0)
(-1.31855 -0.0282785 1.55053e-19)
(-1.26369 -0.0286518 1.6986e-19)
(-1.20815 -0.0290119 -1.85294e-19)
(-1.15195 -0.0293593 0)
(-1.09516 -0.0296946 0)
(-1.0378 -0.0300182 -2.35815e-19)
(-0.979937 -0.030331 0)
(-0.921599 -0.0306333 0)
(-0.862835 -0.0309263 0)
(-0.803687 -0.0312103 0)
(-0.744197 -0.0314868 3.37509e-19)
(-0.684408 -0.0317563 3.61135e-19)
(-0.624358 -0.0320202 0)
(-0.564088 -0.0322791 4.12462e-19)
(-0.503636 -0.0325347 0)
(-0.443038 -0.0327874 0)
(-0.382331 -0.0330384 5.01662e-19)
(-0.32155 -0.0332873 0)
(-0.260732 -0.0335374 5.71296e-19)
(-0.199911 -0.0337968 0)
(-0.13912 -0.0340799 0)
(-0.0784002 -0.0343564 6.95947e-19)
(-0.0178054 -0.0344287 0)
(0.0425941 -0.0339048 7.41474e-19)
(0.102868 -0.0329713 0)
(0.162955 -0.0320381 0)
(0.222812 -0.0311596 0)
(0.282435 -0.0303306 -6.72604e-19)
(0.341831 -0.0295437 0)
(0.400997 -0.0287894 6.45226e-19)
(0.459918 -0.0280579 0)
(0.518555 -0.0273353 0)
(0.576839 -0.0266024 0)
(0.63463 -0.0258269 0)
(0.691725 -0.0249503 0)
(0.747498 -0.0238603 0)
(0.801644 -0.022283 0)
(0.849266 -0.0195693 -1.13798e-18)
(0.896197 -0.0141447 0)
(0.889334 0.00311452 0)
(0.00469456 -0.0325683 1.93541e-18)
(0.0104528 -0.0326066 -1.09553e-18)
(0.0105787 -0.0204809 0)
(0.00773777 -0.00709805 3.44752e-19)
(0.00246335 0.00563363 0)
(-0.00493429 0.0168053 1.34554e-19)
(-0.0144523 0.0259642 -2.46324e-19)
(-0.0259979 0.0331077 -2.27495e-19)
(-0.0394413 0.0385322 0)
(-0.054583 0.04267 -1.94515e-19)
(-0.0712006 0.0459459 -8.99849e-20)
(-0.0891131 0.0486899 0)
(-0.10819 0.0511147 0)
(-0.128339 0.0533439 0)
(-0.149496 0.055439 0)
(-0.171621 0.0574291 -6.353e-20)
(-0.19469 0.0593231 0)
(-0.218689 0.0611231 1.13642e-19)
(-0.243608 0.0628262 0)
(-0.269446 0.0644291 0)
(-0.296201 0.0659292 -9.88074e-20)
(-0.323879 0.0673268 0)
(-0.352486 0.0686295 9.11938e-20)
(-0.382036 0.0698514 -4.39054e-20)
(-0.412538 0.0710214 4.23447e-20)
(-0.444013 0.0721677 -4.08901e-20)
(-0.476493 0.0733212 -3.95409e-20)
(-0.509963 0.074513 0)
(-0.544404 0.0757534 0)
(-0.579815 0.0769759 3.63518e-20)
(-0.616312 0.0782055 -3.55286e-20)
(-0.653889 0.0794811 0)
(-0.69244 0.0806822 0)
(-0.731816 0.0815989 3.40198e-20)
(-0.771991 0.0821794 0)
(-0.812949 0.0824189 0)
(-0.854975 0.0825151 -3.30412e-20)
(-0.897691 0.0828789 0)
(-0.939567 0.0833476 3.20954e-20)
(-0.979927 0.0831874 -6.47655e-20)
(-1.01958 0.0822199 0)
(-1.05899 0.081619 0)
(-1.10031 0.082357 -1.31357e-19)
(-1.14258 0.0841496 -1.28971e-19)
(-1.18566 0.0863645 -1.26084e-19)
(-1.22555 0.0874276 6.14603e-20)
(-1.26379 0.0876868 -6.05407e-20)
(-1.30118 0.0874137 -1.77463e-19)
(-1.33808 0.0867974 1.15806e-19)
(-1.37462 0.0859781 5.69192e-20)
(-1.41084 0.0850354 0)
(-1.44677 0.0840167 -5.48025e-20)
(-1.48241 0.0829489 5.35275e-20)
(-1.51775 0.081848 0)
(-1.55279 0.0807223 0)
(-1.58753 0.0795765 0)
(-1.62195 0.0784118 -5.02875e-20)
(-1.65605 0.0772283 0)
(-1.6898 0.0760242 9.7166e-20)
(-1.72319 0.0747978 0)
(-1.7562 0.0735466 9.42531e-20)
(-1.78882 0.0722681 0)
(-1.82102 0.0709598 -9.15202e-20)
(-1.85278 0.0696191 0)
(-1.88408 0.0682441 8.89384e-20)
(-1.91488 0.0668324 -4.37213e-20)
(-1.94516 0.0653826 0)
(-1.97491 0.063893 -8.5294e-20)
(-2.00407 0.0623629 -4.21834e-20)
(-2.03264 0.0607911 -4.16082e-20)
(-2.06056 0.0591775 0)
(-2.08783 0.0575214 -4.02642e-20)
(-2.1144 0.0558233 -3.99315e-20)
(-2.14024 0.054083 0)
(-2.16532 0.0523015 3.88435e-20)
(-2.18961 0.0504791 -7.64208e-20)
(-2.21307 0.0486175 0)
(-2.23568 0.0467173 -3.72359e-20)
(-2.2574 0.0447805 0)
(-2.27819 0.0428077 1.08353e-19)
(-2.29804 0.0408014 0)
(-2.31689 0.0387625 -1.05162e-19)
(-2.33473 0.0366932 -3.45608e-20)
(-2.35153 0.0345945 3.39032e-20)
(-2.36724 0.0324687 6.67357e-20)
(-2.38185 0.0303167 -6.56558e-20)
(-2.39532 0.0281407 0)
(-2.40762 0.025941 0)
(-2.41873 0.0237189 0)
(-2.42861 0.021474 1.83842e-19)
(-2.43726 0.0192049 6.0142e-20)
(-2.44465 0.0169106 -5.89545e-20)
(-2.45077 0.0145898 0)
(-2.45561 0.0122392 -5.65309e-20)
(-2.45919 0.00985212 5.52811e-20)
(-2.46155 0.0074266 5.4019e-20)
(-2.46274 0.00498772 0)
(-2.46288 0.00260795 0)
(-2.46207 0.00037473 0)
(-2.45988 -0.00174201 4.8689e-20)
(-2.45629 -0.00381644 0)
(-2.45127 -0.00586149 -9.19212e-20)
(-2.44479 -0.00788531 -1.33452e-19)
(-2.43684 -0.00988862 8.61138e-20)
(-2.42741 -0.01187 0)
(-2.4165 -0.0138279 4.02003e-20)
(-2.40409 -0.0157599 0)
(-2.39018 -0.0176644 7.3845e-20)
(-2.37477 -0.0195394 -3.55138e-20)
(-2.35786 -0.0213835 -3.38935e-20)
(-2.33944 -0.0231946 0)
(-2.31952 -0.0249717 -9.07432e-20)
(-2.2981 -0.0267125 5.72054e-20)
(-2.27519 -0.0284162 2.65847e-20)
(-2.25079 -0.0300805 0)
(-2.22491 -0.0317047 2.29565e-20)
(-2.19756 -0.0332867 6.38929e-20)
(-2.16876 -0.0348255 0)
(-2.1385 -0.0363192 3.52166e-20)
(-2.10682 -0.0377679 3.13311e-20)
(-2.07373 -0.0391703 2.73821e-20)
(-2.03925 -0.0405258 0)
(-2.0034 -0.0418319 0)
(-1.9662 -0.0430873 0)
(-1.92766 -0.0442898 -5.872e-21)
(-1.88782 -0.0454399 -2.92751e-21)
(-1.84671 -0.0465368 0)
(-1.80434 -0.0475823 2.05817e-21)
(-1.76076 -0.0485753 6.52171e-21)
(-1.71599 -0.0495178 0)
(-1.67005 -0.050409 1.65653e-20)
(-1.62299 -0.0512452 4.06013e-20)
(-1.57485 -0.0520208 -2.59847e-20)
(-1.52564 -0.0527428 -2.88372e-20)
(-1.47542 -0.0534146 0)
(-1.42423 -0.0540337 0)
(-1.37209 -0.0545968 0)
(-1.31906 -0.0551063 -5.06512e-20)
(-1.26517 -0.0555629 5.36685e-20)
(-1.21047 -0.0559679 1.19797e-19)
(-1.15501 -0.0563219 -6.62195e-20)
(-1.09882 -0.056626 6.93516e-20)
(-1.04195 -0.0568812 7.69172e-20)
(-0.984441 -0.0570886 0)
(-0.926343 -0.0572494 0)
(-0.867696 -0.0573649 -9.11763e-20)
(-0.808545 -0.0574366 0)
(-0.748934 -0.057466 0)
(-0.688905 -0.0574548 2.18778e-19)
(-0.628503 -0.0574049 0)
(-0.567769 -0.0573182 1.1993e-19)
(-0.506745 -0.0571969 -1.28224e-19)
(-0.445471 -0.0570429 0)
(-0.383987 -0.0568585 1.37965e-19)
(-0.322331 -0.0566455 0)
(-0.26054 -0.056406 0)
(-0.19865 -0.0561417 -1.58957e-19)
(-0.136697 -0.055853 3.28205e-19)
(-0.074713 -0.0555406 -1.71687e-19)
(-0.0127307 -0.0552054 0)
(0.0492313 -0.0548458 0)
(0.111152 -0.0544594 1.80193e-19)
(0.173021 -0.0540001 0)
(0.234767 -0.0533395 1.83821e-19)
(0.296311 -0.052512 0)
(0.357648 -0.0516612 0)
(0.418807 -0.0508309 0)
(0.479782 -0.0500255 1.9295e-19)
(0.540568 -0.0492393 0)
(0.601154 -0.0484626 -1.95873e-19)
(0.661519 -0.0476813 0)
(0.721622 -0.0468743 0)
(0.781389 -0.0460074 3.97401e-19)
(0.840686 -0.0450215 -3.99617e-19)
(0.899303 -0.0438033 0)
(0.956729 -0.0421406 0)
(1.01255 -0.0394985 0)
(1.06384 -0.0348887 1.23022e-18)
(1.1137 -0.0249399 0)
(1.1403 -0.000932195 -8.54255e-19)
(0.000223453 -0.040897 -7.81992e-22)
(-0.00207277 -0.0275749 1.06423e-18)
(-0.00818764 -0.00916942 0)
(-0.0162841 0.00806405 -4.35073e-19)
(-0.0258686 0.0236603 0)
(-0.0366413 0.0374946 0)
(-0.0485946 0.0494597 3.32767e-23)
(-0.0618234 0.0595478 1.3468e-19)
(-0.0764088 0.0679121 1.26671e-19)
(-0.0923708 0.0748345 1.19695e-19)
(-0.10967 0.0806445 0)
(-0.128232 0.0856491 0)
(-0.147977 0.0900942 -1.01975e-19)
(-0.168829 0.0941567 -1.94011e-19)
(-0.190729 0.0979525 1.84955e-19)
(-0.213635 0.101554 0)
(-0.237521 0.105003 1.69313e-19)
(-0.262373 0.108323 -8.12943e-20)
(-0.288184 0.111528 0)
(-0.314959 0.114623 1.51017e-19)
(-0.342703 0.117615 7.29655e-20)
(-0.371427 0.120508 -1.41384e-19)
(-0.401142 0.123312 -6.85118e-20)
(-0.431853 0.126039 0)
(-0.463559 0.128707 1.29423e-19)
(-0.496244 0.131332 1.25915e-19)
(-0.529873 0.133924 0)
(-0.564372 0.136492 1.1945e-19)
(-0.599622 0.139019 0)
(-0.635482 0.141461 1.1363e-19)
(-0.671833 0.143806 5.54656e-20)
(-0.708555 0.146076 0)
(-0.745534 0.148126 0)
(-0.782679 0.149765 0)
(-0.819965 0.151038 0)
(-0.857342 0.152042 0)
(-0.894669 0.153026 0)
(-0.931579 0.154025 9.70782e-20)
(-0.967491 0.154618 -1.43341e-19)
(-1.00224 0.154217 0)
(-1.03621 0.152803 0)
(-1.06974 0.151188 0)
(-1.1035 0.148134 1.00381e-22)
(-1.13805 0.144302 8.8345e-20)
(-1.17295 0.141996 1.7293e-19)
(-1.20716 0.140334 -1.69489e-19)
(-1.24067 0.138817 -8.29839e-20)
(-1.27364 0.137251 8.15683e-20)
(-1.30623 0.135598 -1.69655e-22)
(-1.33852 0.133871 7.8397e-20)
(-1.37057 0.132088 0)
(-1.40239 0.130266 7.56463e-20)
(-1.43401 0.128413 -1.60934e-22)
(-1.46542 0.126537 0)
(-1.49662 0.124639 0)
(-1.5276 0.122719 -7.07612e-20)
(-1.55836 0.120775 0)
(-1.58887 0.118804 0)
(-1.61912 0.116803 6.73673e-20)
(-1.6491 0.114767 1.33032e-19)
(-1.67878 0.112693 -6.56924e-20)
(-1.70815 0.110577 0)
(-1.73718 0.108414 6.38007e-20)
(-1.76586 0.106201 0)
(-1.79415 0.103935 6.16914e-20)
(-1.82203 0.101613 6.11221e-20)
(-1.84947 0.0992332 -1.20233e-19)
(-1.87645 0.0967934 -5.91312e-20)
(-1.90293 0.0942924 0)
(-1.92889 0.0917292 1.15265e-19)
(-1.9543 0.0891034 0)
(-1.97912 0.0864149 1.68221e-19)
(-2.00333 0.0836641 1.10482e-19)
(-2.02689 0.0808516 1.08915e-19)
(-2.04976 0.0779785 -1.07358e-19)
(-2.07193 0.0750462 1.58825e-19)
(-2.09335 0.0720567 0)
(-2.114 0.0690117 0)
(-2.13383 0.0659137 -1.01178e-19)
(-2.15282 0.0627648 -1.49542e-19)
(-2.17093 0.0595679 0)
(-2.18814 0.0563254 4.83443e-20)
(-2.20441 0.0530404 0)
(-2.2197 0.0497155 -1.40162e-19)
(-2.234 0.0463539 -1.17682e-22)
(-2.24727 0.0429582 1.03868e-22)
(-2.25947 0.0395319 8.86057e-20)
(-2.2706 0.0360775 0)
(-2.28061 0.0325982 -8.5331e-20)
(-2.28948 0.0290969 -4.56235e-23)
(-2.2972 0.0255768 0)
(-2.30376 0.0220424 0)
(-2.30913 0.0185007 0)
(-2.31332 0.0149616 7.67734e-20)
(-2.31632 0.0114384 0)
(-2.31813 0.00795061 0)
(-2.31875 0.00452066 0)
(-2.31815 0.00115794 0)
(-2.31627 -0.0021678 0)
(-2.31304 -0.00547765 6.55961e-20)
(-2.30844 -0.00876231 0)
(-2.30245 -0.0120181 6.1461e-20)
(-2.29505 -0.0152432 5.94085e-20)
(-2.28623 -0.0184342 -5.73269e-20)
(-2.27598 -0.0215881 0)
(-2.26428 -0.0247011 -5.30754e-20)
(-2.25113 -0.0277699 0)
(-2.23652 -0.0307912 -4.87046e-20)
(-2.22046 -0.0337621 4.64741e-20)
(-2.20293 -0.0366797 1.33212e-19)
(-2.18395 -0.0395412 0)
(-2.1635 -0.0423438 1.19446e-19)
(-2.1416 -0.0450852 3.79223e-20)
(-2.11824 -0.0477626 0)
(-2.09344 -0.0503736 6.56641e-20)
(-2.0672 -0.052916 6.08209e-20)
(-2.03953 -0.0553874 -8.34831e-20)
(-2.01044 -0.0577852 0)
(-1.97994 -0.0601077 -2.25477e-20)
(-1.94806 -0.0623535 -1.99996e-20)
(-1.9148 -0.0645212 -5.31884e-20)
(-1.88018 -0.0666088 0)
(-1.84423 -0.0686136 0)
(-1.80697 -0.070533 0)
(-1.7684 -0.0723649 -7.89697e-21)
(-1.72857 -0.0741083 0)
(-1.68749 -0.075763 0)
(-1.64519 -0.0773297 -1.27972e-21)
(-1.60171 -0.0788089 -4.04063e-21)
(-1.55706 -0.0802014 0)
(-1.51128 -0.0815064 0)
(-1.46441 -0.0827199 -2.48777e-20)
(-1.41648 -0.0838374 0)
(-1.36751 -0.0848638 3.62553e-20)
(-1.31756 -0.0858023 4.07524e-20)
(-1.26665 -0.0866513 0)
(-1.21482 -0.0874083 0)
(-1.16212 -0.0880747 -5.8074e-20)
(-1.10859 -0.088652 -1.29919e-21)
(-1.05427 -0.0891419 -1.31274e-21)
(-0.999195 -0.0895457 0)
(-0.943418 -0.089865 -1.64332e-19)
(-0.886978 -0.0901014 0)
(-0.829918 -0.0902567 0)
(-0.772283 -0.0903327 0)
(-0.714113 -0.0903314 1.06556e-19)
(-0.655455 -0.0902551 0)
(-0.596349 -0.0901062 -2.34158e-19)
(-0.536839 -0.0898874 -1.24433e-19)
(-0.476968 -0.0896015 0)
(-0.416776 -0.0892513 -1.36363e-19)
(-0.356306 -0.0888401 0)
(-0.295596 -0.0883707 0)
(-0.234685 -0.0878468 -4.59864e-19)
(-0.173612 -0.0872709 3.1751e-19)
(-0.112413 -0.0866457 0)
(-0.0511205 -0.0859743 3.41195e-19)
(0.0102334 -0.0852611 -1.7706e-19)
(0.0716181 -0.0845089 0)
(0.132999 -0.0837176 0)
(0.194345 -0.0828843 0)
(0.25563 -0.0820119 -5.68203e-19)
(0.316844 -0.0810998 0)
(0.377975 -0.0801491 -1.96273e-19)
(0.43899 -0.0791655 0)
(0.499874 -0.0781671 0)
(0.560619 -0.077176 0)
(0.62121 -0.0761958 0)
(0.681632 -0.0752207 0)
(0.741871 -0.0742394 0)
(0.801901 -0.0732329 -4.28308e-19)
(0.861681 -0.072171 0)
(0.921139 -0.0710027 -2.19794e-19)
(0.980151 -0.0696401 6.637e-19)
(1.03853 -0.0679213 0)
(1.09585 -0.0655421 0)
(1.15181 -0.0618542 -4.54604e-19)
(1.20449 -0.0556083 -4.61429e-19)
(1.25688 -0.0437961 4.66793e-19)
(1.29672 -0.0189074 4.80897e-19)
(-0.00475596 -0.0327916 -2.97568e-18)
(-0.0126836 -0.0105037 -1.27998e-18)
(-0.0227108 0.0112228 -4.64019e-19)
(-0.0343466 0.0305232 -1.65439e-19)
(-0.0469718 0.0478382 0)
(-0.0602561 0.0633599 2.39511e-19)
(-0.074245 0.0771369 -1.09464e-19)
(-0.0890744 0.0892087 0)
(-0.104867 0.0996844 -9.64515e-20)
(-0.121706 0.108754 0)
(-0.139631 0.116659 1.74615e-19)
(-0.158644 0.123648 0)
(-0.178718 0.129943 7.98028e-20)
(-0.199818 0.135725 1.5299e-19)
(-0.221906 0.141129 -1.46912e-19)
(-0.244949 0.14625 0)
(-0.268922 0.151151 -1.36245e-19)
(-0.293804 0.155874 0)
(-0.319583 0.160444 0)
(-0.346246 0.164874 -1.23412e-19)
(-0.373781 0.16917 0)
(-0.402173 0.173332 -9.17527e-23)
(-0.431398 0.177355 0)
(-0.461419 0.181229 0)
(-0.49218 0.184937 1.0909e-22)
(-0.523607 0.188455 -1.04683e-19)
(-0.555597 0.191749 -1.02122e-19)
(-0.588028 0.194787 -9.94197e-20)
(-0.620759 0.197531 0)
(-0.653648 0.199948 -1.89073e-19)
(-0.686573 0.202018 0)
(-0.719425 0.203715 -9.00489e-20)
(-0.752117 0.204985 0)
(-0.784605 0.205784 0)
(-0.816885 0.20616 8.39794e-20)
(-0.848918 0.206198 0)
(-0.880606 0.205975 -8.02801e-20)
(-0.911801 0.205476 -9.99862e-24)
(-0.942419 0.20458 1.53766e-19)
(-0.972524 0.203161 -1.50612e-19)
(-1.00229 0.201203 0)
(-1.03188 0.198767 0)
(-1.0615 0.195676 -7.09782e-20)
(-1.09138 0.192286 0)
(-1.12143 0.189264 -6.8199e-20)
(-1.15139 0.18658 6.68939e-20)
(-1.18114 0.184088 6.56306e-20)
(-1.21066 0.181675 0)
(-1.23997 0.179284 -6.32404e-20)
(-1.2691 0.17689 -6.21139e-20)
(-1.29808 0.174483 1.21925e-19)
(-1.32692 0.172061 -5.99903e-20)
(-1.35562 0.16962 -5.89881e-20)
(-1.38417 0.167159 0)
(-1.41258 0.164672 0)