/*--------------------------------*- C++ -*----------------------------------*\
  =========                 |
  \\      /  F ield         | OpenFOAM: The Open Source CFD Toolbox
   \\    /   O peration     | Website:  https://openfoam.org
    \\  /    A nd           | Version:  8
     \\/     M anipulation  |
\*---------------------------------------------------------------------------*/
FoamFile
{
    version     2.0;
    format      ascii;
    class       volScalarField;
    location    "200";
    object      epsilon;
}
// * * * * * * * * * * * * * * * * * * * * * * * * * * * * * * * * * * * * * //

dimensions      [0 2 -3 0 0 0 0];

internalField   nonuniform List<scalar> 
12225
(
285.522
270.706
257.916
243.811
232.461
223.086
216.81
212.699
212.742
213.959
217.241
220.908
228.13
232.768
241.374
246.578
256.282
260.087
52.4924
91.883
106.974
114.749
124.844
136.784
152.693
169.903
191.122
210.933
235.254
255.49
281.108
299.359
324.824
339.56
363.704
379.43
20.5285
34.8724
44.6758
50.4687
55.3966
59.6066
64.6661
69.6411
76.3222
83.1824
91.4468
99.3195
108.193
116.946
125.579
135.332
142.575
154.093
16.0023
19.4862
24.0818
27.5633
30.4973
32.8688
35.1564
37.2925
39.5043
41.9172
44.3393
47.2033
49.6857
53.0449
55.4187
59.2609
61.3992
65.7143
15.0385
15.7123
17.3993
19.0782
20.6396
22.0256
23.2466
24.4308
25.4447
26.5946
27.5242
28.7587
29.6334
30.9876
31.8147
33.2767
34.0519
35.6747
14.7897
14.8256
15.2495
15.8675
16.5678
17.2869
17.9239
18.5841
19.1193
19.7341
20.1935
20.7993
21.2089
21.8235
22.1986
22.8309
23.1639
23.8718
14.7658
14.6146
14.6409
14.7257
14.9352
15.2199
15.4916
15.8089
16.071
16.3826
16.6182
16.9204
17.1311
17.4275
17.616
17.915
18.0723
18.4133
14.7687
14.5866
14.466
14.3801
14.3677
14.3896
14.4394
14.5334
14.6185
14.7367
14.8309
14.9565
15.0478
15.1764
15.2609
15.3936
15.4631
15.6242
14.768
14.591
14.4349
14.2963
14.185
14.1044
14.0399
14.0066
13.9814
13.9785
13.9809
13.9917
14.0037
14.03
14.0463
14.0813
14.097
14.1518
14.7666
14.594
14.432
14.282
14.143
14.0219
13.9115
13.8193
13.737
13.6698
13.6102
13.5633
13.5181
13.4872
13.4516
13.4344
13.4019
13.4012
14.7659
14.5945
14.4322
14.2803
14.1361
14.0032
13.8782
13.7644
13.6582
13.5629
13.4735
13.3952
13.3198
13.2561
13.1915
13.1408
13.0838
13.0452
14.7657
14.5943
14.4321
14.2798
14.1353
13.9998
13.8715
13.7518
13.6385
13.5336
13.4341
13.343
13.2557
13.1771
13.1002
13.0328
12.9647
12.9074
14.7657
14.5941
14.432
14.2794
14.1349
13.9989
13.8699
13.7485
13.6331
13.5249
13.4219
13.3257
13.2338
13.1483
13.0663
12.9906
12.9172
12.8502
14.7657
14.5939
14.4318
14.279
14.1346
13.9983
13.8691
13.7472
13.6315
13.5223
13.4184
13.3203
13.227
13.1389
13.055
12.9759
12.9002
12.8291
14.7657
14.5938
14.4317
14.2787
14.1342
13.9977
13.8686
13.7464
13.6307
13.5211
13.4171
13.3185
13.2248
13.136
13.0516
12.9715
12.8952
12.8228
14.7657
14.5937
14.4316
14.2785
14.1339
13.9973
13.8681
13.7458
13.63
13.5202
13.4161
13.3174
13.2236
13.1346
13.05
12.9697
12.8932
12.8205
14.7657
14.5937
14.4315
14.2783
14.1337
13.997
13.8677
13.7453
13.6294
13.5195
13.4154
13.3165
13.2227
13.1336
13.0489
12.9684
12.8919
12.819
14.7657
14.5937
14.4314
14.2782
14.1335
13.9968
13.8674
13.745
13.629
13.5191
13.4148
13.3159
13.222
13.1329
13.0481
12.9676
12.8909
12.818
14.7657
14.5937
14.4314
14.2782
14.1335
13.9967
13.8673
13.7448
13.6288
13.5189
13.4146
13.3157
13.2217
13.1325
13.0477
12.9671
12.8904
12.8175
14.7657
14.5937
14.4314
14.2782
14.1336
13.9968
13.8674
13.745
13.629
13.5191
13.4148
13.3159
13.222
13.1327
13.048
12.9674
12.8907
12.8177
14.7657
14.5937
14.4315
14.2784
14.1338
13.997
13.8677
13.7453
13.6294
13.5196
13.4154
13.3166
13.2229
13.1338
13.0494
12.969
12.8927
12.82
14.7657
14.5937
14.4316
14.2785
14.1341
13.9974
13.8685
13.7464
13.6312
13.522
13.419
13.3214
13.2293
13.1418
13.0595
12.981
12.9074
12.8368
14.7659
14.5937
14.4318
14.2788
14.1353
14.0002
13.8742
13.756
13.6463
13.5435
13.4485
13.3592
13.277
13.1992
13.1282
13.0601
12.9988
12.9387
14.7661
14.5928
14.4329
14.2844
14.1515
14.0321
13.9289
13.8375
13.7593
13.6894
13.6307
13.5769
13.5328
13.4905
13.4574
13.423
13.3989
13.3693
14.7641
14.5936
14.461
14.3603
14.3029
14.2767
14.2796
14.294
14.3202
14.3529
14.3959
14.4345
14.4824
14.5217
14.572
14.6089
14.6616
14.6938
14.757
14.6921
14.7579
14.9172
15.1828
15.4611
15.7475
16.012
16.2723
16.5038
16.736
16.9386
17.1507
17.3309
17.5309
17.6936
17.8888
18.0359
14.9575
15.4344
16.5693
17.6884
18.7053
19.5677
20.3372
20.9968
21.6194
22.166
22.7188
23.2108
23.7398
24.2042
24.7326
25.1825
25.7249
26.1658
16.2579
20.9389
25.015
27.7587
29.7844
31.3585
32.7766
34.0583
35.3592
36.6161
37.9752
39.297
40.7613
42.1455
43.7175
45.1733
46.8833
48.3579
29.9428
47.225
54.8705
58.6734
61.6138
64.4319
67.5793
70.9787
74.7377
78.7136
82.9847
87.3437
91.9044
96.4493
101.099
105.621
110.174
114.575
165.79
160.073
154.899
149.564
144.479
139.678
135.613
132.11
129.27
126.973
125.319
124.044
123.339
122.829
122.825
122.982
123.269
123.826
0.46543
0.492541
0.875033
1.23816
1.62315
2.0325
2.46945
2.93067
3.40895
3.89425
4.37792
4.85191
5.31096
5.75034
6.16723
6.55825
6.92063
7.25001
7.54139
7.78755
7.98045
8.11091
8.16876
8.15308
8.04383
7.90235
7.78063
8.03041
8.34159
8.60029
8.87713
9.02988
8.80007
9.20484
39.7138
39.9367
40.4388
44.7949
47.349
51.0416
54.4672
58.2722
62.1528
66.2469
70.4936
74.9262
79.5309
84.3234
89.2973
94.4665
99.8246
105.386
111.144
117.113
123.286
129.677
136.277
143.101
150.14
157.408
164.893
172.61
180.546
188.717
197.105
205.727
214.564
223.631
232.907
242.409
252.112
262.032
272.142
282.458
292.95
303.633
314.475
325.489
336.644
347.949
359.371
370.916
382.55
394.275
406.053
417.882
429.722
441.562
453.361
465.1
476.741
488.256
499.633
510.901
522.154
533.211
544.126
554.852
565.381
575.686
585.744
595.532
605.028
614.208
623.051
631.532
639.633
647.327
654.597
661.42
667.78
673.653
679.03
683.888
688.222
692.012
695.262
697.956
700.108
701.722
702.758
702.89
702.732
701.799
700.495
698.756
696.358
693.419
689.974
686.019
681.598
676.712
671.407
665.692
659.611
653.182
646.433
639.4
632.13
624.676
617.083
609.399
601.655
593.886
586.123
578.402
570.751
563.209
555.793
548.54
541.471
534.626
528.017
521.678
515.615
509.858
504.406
499.282
494.484
490.024
485.891
482.101
478.625
475.453
472.601
470.501
471.541
473.167
475.097
477.35
479.867
482.635
485.575
488.577
491.391
493.875
496.031
497.124
495.774
472.885
1.9778
1.17399
1.17298
1.32572
1.5577
1.84617
2.18114
2.55287
2.95119
3.36638
3.79039
4.21718
4.64278
5.06486
5.4822
5.89418
6.30023
6.69935
7.08969
7.46824
7.83076
8.18132
8.54739
8.95127
9.42024
9.99892
10.6918
11.486
12.3668
13.424
14.8092
16.68
18.4252
21.6134
24.6851
25.6233
27.1341
28.8956
30.5372
32.3301
34.1476
36.0507
38.0099
40.0409
42.1386
44.308
46.549
48.8643
51.2544
53.7215
56.2659
58.8898
61.5933
64.3782
67.2445
70.1938
73.2256
76.3415
79.5406
82.8242
86.1908
89.6419
93.1754
96.7923
100.49
104.27
108.128
112.066
116.079
120.168
124.328
128.56
132.858
137.222
141.646
146.129
150.666
155.253
159.886
164.56
169.269
174.009
178.772
183.553
188.342
193.134
197.918
202.688
207.434
212.149
216.827
221.469
226.088
230.709
235.392
240.034
244.614
249.123
253.555
257.9
262.15
266.296
270.329
274.242
278.023
281.666
285.162
288.501
291.675
294.677
297.498
300.131
302.57
304.807
306.837
308.656
310.258
311.64
312.798
313.727
314.411
314.83
315.036
314.991
314.765
314.334
313.652
312.738
311.608
310.268
308.728
306.994
305.079
302.99
300.741
298.341
295.803
293.141
290.374
287.519
284.595
281.618
278.602
275.563
272.513
269.467
266.44
263.443
260.491
257.595
254.768
252.024
249.373
246.826
244.391
242.078
239.893
237.843
235.934
234.168
232.548
231.079
229.76
228.591
227.592
226.893
226.946
227.199
227.603
228.157
228.8
229.549
230.375
231.219
231.991
232.674
233.25
233.883
234.117
233.31
3.91578
1.97679
1.75185
1.8018
1.96378
2.19943
2.49162
2.82873
3.20039
3.59727
4.01164
4.43788
4.87261
5.31442
5.76341
6.22083
6.68864
7.16934
7.66603
8.18306
8.72768
9.30641
9.91713
10.5693
11.2784
12.0531
12.8921
13.7973
14.7796
15.87
17.0938
18.425
19.8271
21.3622
22.7604
23.9972
25.335
26.7326
28.1596
29.6466
31.1844
32.7779
34.4251
36.1278
37.8865
39.7022
41.5756
43.5079
45.4995
47.5515
49.6643
51.8388
54.0754
56.3747
58.7371
61.1631
63.6528
66.2066
68.8243
71.5061
74.2518
77.0611
79.9336
82.8689
85.8663
88.925
92.0439
95.2222
98.4584
101.751
105.099
108.5
111.952
115.454
119.001
122.593
126.227
129.899
133.605
137.344
141.11
144.901
148.711
152.537
156.374
160.217
164.061
167.903
171.738
175.564
179.38
183.185
186.984
190.78
194.569
198.32
202.026
205.68
209.274
212.802
216.256
219.631
222.919
226.112
229.204
232.188
235.056
237.802
240.418
242.898
245.236
247.425
249.459
251.333
253.042
254.582
255.948
257.136
258.142
258.962
259.592
260.03
260.257
260.312
260.213
259.928
259.454
258.797
257.966
256.967
255.804
254.486
253.019
251.412
249.674
247.813
245.84
243.767
241.606
239.37
237.074
234.73
232.349
229.943
227.524
225.103
222.691
220.3
217.938
215.617
213.345
211.134
208.991
206.926
204.944
203.053
201.26
199.569
197.984
196.51
195.149
193.903
192.774
191.763
190.879
190.173
189.772
189.522
189.404
189.376
189.366
189.432
189.56
189.673
189.699
189.686
189.66
189.776
190.062
190.895
5.94315
2.83338
2.3848
2.35093
2.46945
2.67591
2.94552
3.26489
3.62418
4.01516
4.43106
4.86688
5.31948
5.78757
6.27144
6.7726
7.2934
7.8367
8.40554
9.00292
9.63154
10.2932
10.9887
11.7206
12.4922
13.3049
14.1602
15.061
16.0144
17.029
18.1078
19.2453
20.4504
21.6717
22.8946
24.1315
25.4274
26.7716
28.1549
29.5829
31.0591
32.5854
34.1625
35.7915
37.473
39.208
40.9973
42.8418
44.7422
46.6992
48.7134
50.7855
52.9159
55.1053
57.3541
59.6626
62.0314
64.4606
66.9504
69.501
72.1123
74.7843
77.5167
80.3092
83.1614
86.0727
89.0423
92.0695
95.1531
98.2921
101.485
104.73
108.027
111.372
114.764
118.2
121.679
125.197
128.752
132.34
135.959
139.605
143.275
146.964
150.67
154.388
158.114
161.846
165.58
169.312
173.042
176.766
180.483
184.189
187.874
191.524
195.132
198.692
202.197
205.64
209.014
212.313
215.529
218.655
221.686
224.613
227.429
230.129
232.704
235.148
237.456
239.62
241.635
243.496
245.196
246.732
248.099
249.293
250.311
251.148
251.803
252.276
252.543
252.635
252.575
252.33
251.905
251.304
250.534
249.6
248.507
247.261
245.87
244.34
242.681
240.901
239.011
237.021
234.943
232.789
230.57
228.3
225.988
223.647
221.288
218.921
216.557
214.207
211.879
209.583
207.329
205.126
202.98
200.901
198.894
196.967
195.125
193.372
191.713
190.151
188.688
187.325
186.063
184.9
183.842
182.908
182.144
181.5
180.957
180.482
180.029
179.611
179.219
178.807
178.359
177.898
177.454
177.176
177.192
177.833
7.898
3.68334
3.0143
2.90262
2.97973
3.16099
3.41275
3.71869
4.06848
4.45436
4.87018
5.31127
5.77447
6.25814
6.76201
7.28689
7.83434
8.40637
9.00503
9.63215
10.2891
10.9766
11.6951
12.4451
13.2278
14.0452
14.8996
15.7937
16.7304
17.7129
18.7414
19.8129
20.9375
22.1052
23.3097
24.5555
25.8436
27.1748
28.5519
29.9771
31.4509
32.9744
34.5488
36.1749
37.8539
39.5867
41.3743
43.2176
45.1177
47.0758
49.0924
51.1681
53.3035
55.4994
57.7566
60.0755
62.4568
64.901
67.4086
69.9798
72.6149
75.3142
78.0775
80.9049
83.7962
86.7509
89.7687
92.8489
95.9906
99.1929
102.455
105.775
109.151
112.583
116.067
119.602
123.185
126.815
130.488
134.2
137.95
141.734
145.548
149.388
153.252
157.135
161.033
164.942
168.859
172.779
176.699
180.614
184.517
188.402
192.262
196.087
199.871
203.606
207.286
210.903
214.45
217.92
221.306
224.6
227.795
230.883
233.857
236.71
239.434
242.023
244.469
246.767
248.909
250.89
252.704
254.346
255.812
257.097
258.197
259.109
259.831
260.364
260.687
260.813
260.778
260.55
260.134
259.535
258.758
257.807
256.689
255.408
253.974
252.392
250.672
248.823
246.855
244.779
242.606
240.348
238.017
235.625
233.184
230.706
228.201
225.681
223.157
220.638
218.136
215.659
213.216
210.816
208.468
206.178
203.953
201.8
199.725
197.73
195.822
194.001
192.27
190.63
189.08
187.619
186.248
184.976
183.817
182.754
181.772
180.853
179.966
179.107
178.265
177.417
176.559
175.708
174.903
174.273
173.905
174.086
9.72154
4.4924
3.61239
3.42586
3.4627
3.61948
3.8538
4.14602
4.48474
4.86218
5.27246
5.71112
6.17497
6.66203
7.17145
7.70332
8.25844
8.83808
9.44365
10.0766
10.7381
11.429
12.1504
12.9029
13.6881
14.5079
15.3645
16.2602
17.1974
18.178
19.2028
20.2724
21.3882
22.549
23.7538
25.0038
26.2997
27.6425
29.0332
30.4733
31.9639
33.5061
35.1013
36.7505
38.455
40.2159
42.0345
43.9118
45.8489
47.8467
49.9064
52.0294
54.2169
56.4698
58.7891
61.176
63.6313
66.1557
68.7502
71.4153
74.1517
76.9597
79.8398
82.7922
85.8169
88.9138
92.0826
95.323
98.6343
102.016
105.466
108.984
112.569
116.218
119.929
123.701
127.531
131.416
135.353
139.34
143.372
147.447
151.559
155.706
159.883
164.086
168.31
172.55
176.802
181.06
185.318
189.57
193.809
198.028
202.219
206.374
210.486
214.547
218.549
222.486
226.347
230.127
233.816
237.407
240.891
244.26
247.507
250.623
253.601
256.433
259.11
261.627
263.977
266.152
268.146
269.954
271.571
272.992
274.213
275.231
276.043
276.649
277.034
277.197
277.18
276.955
276.527
275.899
275.077
274.066
272.871
271.499
269.957
268.252
266.394
264.393
262.258
260.002
257.636
255.172
252.622
250
247.317
244.585
241.818
239.025
236.22
233.412
230.612
227.83
225.075
222.356
219.682
217.059
214.495
211.996
209.568
207.215
204.941
202.748
200.639
198.614
196.673
194.815
193.039
191.348
189.748
188.228
186.781
185.391
184.042
182.724
181.428
180.143
178.869
177.627
176.455
175.462
174.697
174.316
11.3687
5.23582
4.15866
3.89976
3.89725
4.02887
4.24473
4.52157
4.8467
5.21197
5.61163
6.04136
6.49805
6.97962
7.48494
8.0137
8.56628
9.14354
9.74665
10.3769
11.0357
11.7242
12.4438
13.1959
13.982
14.804
15.6638
16.5635
17.5048
18.4893
19.518
20.5918
21.7115
22.8776
24.0907
25.3515
26.6612
28.0208
29.4315
30.8945
32.4111
33.9828
35.6108
37.2968
39.042
40.8481
42.7164
44.6484
46.6456
48.7095
50.8416
53.0435
55.3166
57.6624
60.0824
62.578
65.1503
67.8008
70.5305
73.3404
76.2316
79.2048
82.2607
85.3999
88.6226
91.929
95.3192
98.7927
102.349
105.988
109.708
113.508
117.386
121.342
125.371
129.473
133.644
137.882
142.183
146.544
150.961
155.429
159.945
164.503
169.098
173.726
178.381
183.057
187.748
192.448
197.149
201.843
206.524
211.183
215.812
220.402
224.945
229.433
233.856
238.207
242.476
246.654
250.733
254.704
258.557
262.284
265.875
269.323
272.618
275.752
278.716
281.504
284.107
286.517
288.729
290.736
292.533
294.113
295.473
296.609
297.519
298.202
298.645
298.842
298.834
298.597
298.136
297.455
296.559
295.453
294.143
292.636
290.938
289.059
287.009
284.796
282.432
279.93
277.301
274.559
271.716
268.785
265.781
262.715
259.6
256.45
253.277
250.091
246.904
243.727
240.568
237.438
234.345
231.297
228.3
225.362
222.489
219.684
216.953
214.298
211.722
209.227
206.811
204.476
202.219
200.042
197.946
195.926
193.976
192.087
190.249
188.453
186.692
184.962
183.268
181.628
180.081
178.714
177.546
176.643
12.8076
5.89585
4.63914
4.30796
4.2692
4.37533
4.57163
4.83155
5.141
5.49139
5.87694
6.29353
6.73819
7.20894
7.7046
8.22477
8.76963
9.3399
9.93661
10.561
11.2146
11.8987
12.6148
13.3646
14.1498
14.972
15.8331
16.7348
17.6788
18.6665
19.6991
20.7777
21.9035
23.0775
24.3006
25.5743
26.8999
28.2787
29.7123
31.202
32.7496
34.3567
36.0249
37.756
39.5518
41.4141
43.3449
45.3459
47.4192
49.5666
51.7902
54.0919
56.4737
58.9375
61.4853
64.1187
66.8398
69.6501
72.5512
75.5447
78.6318
81.8139
85.0919
88.4667
91.939
95.509
99.1772
102.943
106.807
110.767
114.824
118.975
123.219
127.554
131.978
136.487
141.08
145.752
150.5
155.319
160.205
165.153
170.158
175.214
180.316
185.456
190.629
195.827
201.043
206.27
211.498
216.72
221.926
227.108
232.255
237.359
242.409
247.398
252.314
257.148
261.89
266.53
271.059
275.465
279.74
283.873
287.855
291.676
295.326
298.797
302.08
305.165
308.045
310.712
313.158
315.377
317.361
319.107
320.608
321.861
322.864
323.614
324.103
324.321
324.304
324.035
323.517
322.755
321.754
320.52
319.058
317.376
315.482
313.385
311.094
308.62
305.976
303.174
300.226
297.147
293.95
290.649
287.259
283.793
280.265
276.688
273.077
269.442
265.795
262.149
258.512
254.895
251.306
247.755
244.249
240.795
237.398
234.066
230.801
227.609
224.492
221.453
218.492
215.611
212.808
210.085
207.442
204.877
202.387
199.967
197.611
195.314
193.071
190.883
188.756
186.709
184.775
183.026
181.452
180.07
14.0192
6.46056
5.04481
4.64607
4.57218
4.65283
4.82891
5.07092
5.36346
5.69745
6.06707
6.46831
6.89842
7.35556
7.83865
8.34727
8.8816
9.44232
10.0305
10.6473
11.2942
11.9721
12.6829
13.4282
14.2099
15.0297
15.8893
16.7905
17.7349
18.724
19.7592
20.8421
21.974
23.1563
24.3903
25.6772
27.0197
28.4193
29.878
31.3976
32.98
34.6274
36.3418
38.1253
39.9802
41.9088
43.9134
45.9963
48.1601
50.4072
52.7401
55.1613
57.6734
60.2787
62.9798
65.779
68.6786
71.681
74.7881
78.002
81.3245
84.7572
88.3015
91.9586
95.7295
99.6147
103.615
107.73
111.959
116.302
120.758
125.325
130.002
134.786
139.674
144.663
149.751
154.931
160.201
165.555
170.987
176.492
182.064
187.695
193.379
199.108
204.875
210.67
216.485
222.31
228.137
233.955
239.754
245.524
251.253
256.931
262.548
268.092
273.553
278.919
284.18
289.324
294.34
299.217
303.944
308.511
312.907
317.122
321.144
324.966
328.576
331.965
335.126
338.048
340.725
343.149
345.314
347.212
348.841
350.194
351.27
352.067
352.575
352.792
352.739
352.407
351.801
350.924
349.783
348.383
346.731
344.835
342.702
340.343
337.768
334.988
332.016
328.865
325.548
322.081
318.478
314.754
310.924
307.002
303.004
298.943
294.834
290.69
286.523
282.345
278.167
273.999
269.852
265.734
261.653
257.617
253.633
249.707
245.845
242.051
238.331
234.686
231.121
227.635
224.232
220.912
217.676
214.525
211.459
208.477
205.577
202.755
200.012
197.35
194.777
192.311
189.98
187.841
185.864
184.038
14.9951
6.92458
5.37301
4.91316
4.80582
4.86152
5.01726
5.24103
5.51623
5.83333
6.18638
6.57149
6.98608
7.42852
7.89788
8.39327
8.91518
9.46447
10.0422
10.6499
11.2893
11.9605
12.6653
13.4053
14.1824
14.9983
15.8549
16.7538
17.6969
18.686
19.7227
20.8088
21.946
23.1362
24.3812
25.6829
27.045
28.4681
29.9549
31.5084
33.131
34.8251
36.5934
38.4384
40.3628
42.3696
44.4616
46.6417
48.913
51.2785
53.7415
56.3049
58.972
61.7458
64.6294
67.6258
70.7379
73.9685
77.3202
80.7955
84.3968
88.1259
91.9849
95.975
100.098
104.353
108.743
113.266
117.923
122.713
127.634
132.684
137.862
143.165
148.588
154.13
159.784
165.546
171.411
177.373
183.425
189.56
195.77
202.048
208.385
214.771
221.197
227.654
234.131
240.617
247.101
253.572
260.017
266.425
272.784
279.081
285.304
291.441
297.48
303.407
309.211
314.88
320.401
325.762
330.952
335.958
340.77
345.376
349.765
353.927
357.852
361.531
364.953
368.11
370.994
373.598
375.913
377.935
379.659
381.079
382.193
382.998
383.489
383.666
383.539
383.104
382.367
381.334
380.01
378.401
376.516
374.362
371.947
369.282
366.378
363.247
359.901
356.356
352.625
348.724
344.668
340.473
336.155
331.729
327.211
322.616
317.959
313.255
308.515
303.754
298.983
294.212
289.452
284.713
280.004
275.333
270.708
266.136
261.623
257.176
252.801
248.5
244.28
240.144
236.094
232.134
228.267
224.495
220.822
217.251
213.781
210.415
207.155
204.004
200.973
198.077
195.341
192.808
190.433
188.193
15.7372
7.28774
5.62535
5.11217
4.97383
5.00579
5.14168
5.34744
5.6055
5.90589
6.24258
6.61164
7.01053
7.43814
7.89437
8.37824
8.88966
9.42911
9.99745
10.5957
11.225
11.8863
12.5819
13.3137
14.0836
14.8934
15.7452
16.6409
17.5825
18.5721
19.6118
20.7036
21.8499
23.0528
24.3144
25.6365
27.0214
28.4721
29.9931
31.5879
33.2595
35.0108
36.845
38.7653
40.775
42.8775
45.0763
47.3751
49.7775
52.2874
54.9086
57.6448
60.4999
63.4776
66.5817
69.8159
73.1836
76.6882
80.3329
84.1206
88.0542
92.1359
96.3679
100.752
105.289
109.981
114.827
119.827
124.982
130.29
135.749
141.356
147.11
153.007
159.041
165.21
171.506
177.925
184.459
191.102
197.844
204.678
211.595
218.584
225.636
232.74
239.885
247.058
254.248
261.443
268.628
275.792
282.921
290
297.017
303.957
310.807
317.552
324.18
330.675
337.025
343.216
349.235
355.069
360.705
366.131
371.335
376.305
381.03
385.499
389.702
393.629
397.27
400.617
403.661
406.396
408.813
410.907
412.673
414.107
415.205
415.966
416.387
416.469
416.216
415.624
414.704
413.462
411.905
410.038
407.87
405.409
402.665
399.647
396.368
392.84
389.076
385.093
380.904
376.525
371.973
367.265
362.416
357.443
352.363
347.192
341.946
336.638
331.284
325.898
320.49
315.074
309.659
304.257
298.878
293.53
288.221
282.961
277.757
272.616
267.544
262.549
257.637
252.812
248.08
243.447
238.917
234.497
230.192
226.009
221.951
218.023
214.231
210.58
207.081
203.748
200.6
197.672
194.907
192.281
16.2574
7.55437
5.80665
5.24883
5.08271
5.09277
5.20982
5.39831
5.63992
5.92424
6.24568
6.60142
6.98764
7.40267
7.8452
8.31442
8.81152
9.33733
9.89279
10.479
11.0974
11.7498
12.4377
13.163
13.9276
14.7337
15.5833
16.4787
17.4223
18.4166
19.464
20.5671
21.7283
22.9507
24.2375
25.5905
27.0122
28.5048
30.0735
31.7239
33.46
35.2865
37.2072
39.2258
41.346
43.572
45.9081
48.3587
50.9282
53.6212
56.4423
59.3959
62.4867
65.7191
69.0975
72.6261
76.3092
80.1505
84.1537
88.3221
92.6588
97.1664
101.847
106.702
111.734
116.942
122.327
127.889
133.626
139.536
145.618
151.867
158.281
164.855
171.582
178.458
185.475
192.627
199.903
207.297
214.798
222.395
230.079
237.837
245.657
253.526
261.432
269.361
277.299
285.231
293.142
301.019
308.845
316.605
324.283
331.864
339.333
346.675
353.874
360.915
367.783
374.464
380.944
387.209
393.246
399.041
404.583
409.86
414.86
419.572
423.986
428.093
431.883
435.348
438.479
441.27
443.714
445.806
447.54
448.914
449.924
450.569
450.849
450.767
450.318
449.502
448.336
446.824
444.973
442.79
440.283
437.461
434.335
430.915
427.212
423.241
419.014
414.549
409.86
404.964
399.877
394.616
389.2
383.644
377.967
372.184
366.313
360.37
354.368
348.323
342.247
336.153
330.052
323.956
317.874
311.818
305.796
299.818
293.892
288.028
282.233
276.515
270.883
265.344
259.905
254.576
249.362
244.274
239.32
234.508
229.849
225.348
221.014
216.856
212.882
209.108
205.547
202.228
199.084
196.098
16.5778
7.73489
5.92481
5.33113
5.1405
5.13164
5.23095
5.40359
5.63158
5.90314
6.21147
6.55169
6.922
7.32151
7.74973
8.20691
8.69311
9.20896
9.75541
10.3337
10.9453
11.5921
12.2758
12.9985
13.7626
14.5702
15.4238
16.3261
17.2799
18.2883
19.3548
20.4813
21.671
22.9269
24.2517
25.6469
27.119
28.6738
30.3164
32.0516
33.8843
35.8193
37.8625
40.0183
42.2913
44.6865
47.2091
49.8645
52.658
55.5948
58.6804
61.9199
65.3186
68.8817
72.6141
76.5205
80.6056
84.8734
89.3279
93.9725
98.8102
103.843
109.074
114.504
120.134
125.963
131.991
138.217
144.639
151.254
158.058
165.047
172.215
179.557
187.065
194.732
202.549
210.507
218.596
226.805
235.122
243.535
252.032
260.598
269.219
277.881
286.569
295.266
303.958
312.628
321.259
329.835
338.338
346.752
355.06
363.244
371.288
379.176
386.89
394.415
401.736
408.836
415.701
422.317
428.67
434.747
440.536
446.025
451.204
456.061
460.586
464.772
468.608
472.088
475.204
477.949
480.319
482.307
483.912
485.129
485.956
486.395
486.444
486.116
485.379
484.263
482.775
480.921
478.709
476.143
473.234
469.993
466.428
462.552
458.376
453.914
449.181
444.192
438.963
433.512
427.855
422.01
415.994
409.826
403.523
397.102
390.582
383.977
377.304
370.577
363.81
357.017
350.209
343.398
336.595
329.812
323.058
316.343
309.679
303.074
296.538
290.082
283.715
277.447
271.288
265.249
259.34
253.573
247.961
242.515
237.247
232.169
227.291
222.623
218.176
213.962
209.992
206.289
202.781
199.465
16.6915
7.82908
5.98443
5.36572
5.15487
5.13088
5.21725
5.37719
5.59042
5.84666
6.1403
6.46798
6.82734
7.21701
7.63644
8.08566
8.5651
9.07557
9.61813
10.1941
10.8053
11.4536
12.1412
12.8708
13.6454
14.4669
15.3381
16.2621
17.2423
18.2814
19.3816
20.5461
21.7806
23.09
24.4793
25.9536
27.518
29.1785
30.9405
32.81
34.7928
36.8953
39.1235
41.483
43.98
46.6207
49.4116
52.3589
55.4687
58.7473
62.2004
65.8339
69.6535
73.6647
77.8727
82.2824
86.8984
91.7247
96.7648
102.022
107.498
113.195
119.115
125.257
131.62
138.205
145.008
152.027
159.258
166.696
174.336
182.172
190.196
198.401
206.776
215.313
224.001
232.828
241.782
250.85
260.018
269.273
278.598
287.979
297.4
306.843
316.292
325.73
335.138
344.499
353.795
363.007
372.118
381.109
389.962
398.658
407.18
415.51
423.632
431.528
439.183
446.58
453.705
460.543
467.08
473.305
479.205
484.769
489.987
494.849
499.347
503.472
507.217
510.576
513.541
516.109
518.274
520.033
521.385
522.326
522.855
522.976
522.7
521.998
520.885
519.379
517.485
515.207
512.555
509.535
506.157
502.433
498.372
493.986
489.287
484.288
479.006
473.454
467.651
461.613
455.357
448.9
442.261
435.459
428.51
421.433
414.246
406.965
399.607
392.186
384.718
377.215
369.69
362.156
354.624
347.105
339.612
332.155
324.746
317.396
310.115
302.916
295.811
288.811
281.93
275.18
268.575
262.131
255.861
249.783
243.911
238.26
232.843
227.672
222.759
218.114
213.746
209.675
205.825
202.211
16.6623
7.84599
5.99261
5.36163
5.13882
5.10302
5.17497
5.32116
5.5231
5.77013
6.05597
6.37695
6.73087
7.11658
7.53369
7.98242
8.46354
8.9785
9.52822
10.1141
10.7383
11.4031
12.1109
12.8643
13.6648
14.5155
15.4211
16.3862
17.4149
18.5118
19.6824
20.9309
22.2628
23.6839
25.2003
26.8184
28.5448
30.3861
32.3492
34.441
36.6688
39.0399
41.5611
44.2399
47.0839
50.1008
53.2986
56.6848
60.2658
64.0479
68.0371
72.2392
76.6596
81.3036
86.1758
91.2804
96.621
102.2
108.021
114.085
120.391
126.942
133.734
140.767
148.038
155.544
163.28
171.24
179.418
187.808
196.401
205.189
214.161
223.307
232.617
242.076
251.674
261.395
271.226
281.152
291.157
301.224
311.338
321.481
331.635
341.782
351.904
361.982
371.997
381.93
391.763
401.475
411.049
420.465
429.704
438.747
447.578
456.177
464.527
472.613
480.417
487.924
495.12
501.99
508.521
514.703
520.524
525.974
531.045
535.727
540.014
543.899
547.376
550.441
553.088
555.314
557.117
558.493
559.447
559.969
560.063
559.754
558.997
557.817
556.225
554.228
551.832
549.043
545.871
542.322
538.407
534.137
529.523
524.575
519.305
513.729
507.86
501.714
495.308
488.658
481.782
474.697
467.42
459.971
452.367
444.627
436.768
428.807
420.762
412.646
404.476
396.265
388.026
379.772
371.515
363.266
355.039
346.846
338.699
330.61
322.592
314.658
306.824
299.102
291.507
284.057
276.768
269.657
262.744
256.046
249.584
243.375
237.436
231.78
226.418
221.363
216.618
212.203
208.032
204.154
16.5339
7.82158
5.97111
5.33079
5.09518
5.04886
5.11375
5.25463
5.45271
5.69773
5.98398
6.30794
6.66729
7.06116
7.48944
7.95258
8.45129
8.98625
9.5579
10.1698
10.825
11.5269
12.2788
13.0849
13.9498
14.8776
15.8731
16.9419
18.0897
19.3227
20.6477
22.0712
23.6003
25.2422
27.0051
28.8969
30.9261
33.1009
35.4299
37.9214
40.5834
43.4235
46.4495
49.6711
53.0974
56.7379
60.6034
64.703
69.0408
73.6213
78.4487
83.5274
88.8609
94.4524
100.304
106.418
112.794
119.433
126.333
133.494
140.911
148.582
156.503
164.667
173.068
181.7
190.555
199.623
208.896
218.364
228.014
237.837
247.818
257.947
268.207
278.587
289.07
299.642
310.286
320.986
331.725
342.486
353.252
364.004
374.724
385.393
395.993
406.504
416.908
427.185
437.316
447.283
457.066
466.647
476.007
485.129
493.994
502.586
510.888
518.883
526.558
533.897
540.887
547.514
553.767
559.636
565.113
570.188
574.855
579.106
582.937
586.343
589.32
591.866
593.979
595.653
596.893
597.689
598.065
597.991
597.503
596.552
595.184
593.395
591.192
588.582
585.573
582.17
578.382
574.216
569.684
564.795
559.561
553.992
548.099
541.897
535.4
528.623
521.583
514.294
506.775
499.041
491.111
483.003
474.734
466.322
457.786
449.142
440.408
431.598
422.728
413.812
404.863
395.894
386.917
377.946
368.993
360.071
351.196
342.379
333.634
324.979
316.428
307.998
299.707
291.572
283.616
275.86
268.324
261.029
254.001
247.26
240.815
234.686
228.891
223.441
218.34
213.609
209.163
205.085
16.2884
7.75671
5.91707
5.27559
5.04087
4.99716
5.06702
5.21558
5.42391
5.68199
5.98395
6.32433
6.70332
7.12111
7.57847
8.07673
8.61789
9.20476
9.84035
10.5279
11.2717
12.0763
12.9473
13.8906
14.9126
16.02
17.22
18.5203
19.9292
21.4555
23.1085
24.8976
26.8327
28.9241
31.1822
33.6173
36.2399
39.0604
42.0886
45.3343
48.8063
52.5132
56.4634
60.6655
65.1277
69.858
74.8636
80.1558
85.733
91.5943
97.7391
104.166
110.875
117.861
125.123
132.656
140.455
148.515
156.829
165.39
174.19
183.221
192.473
201.937
211.603
221.46
231.496
241.7
252.06
262.563
273.197
283.948
294.803
305.746
316.765
327.844
338.969
350.123
361.291
372.458
383.605
394.718
405.779
416.771
427.675
438.476
449.155
459.695
470.077
480.284
490.298
500.101
509.675
519.005
528.072
536.86
545.353
553.536
561.393
568.911
576.075
582.874
589.294
595.324
600.955
606.179
610.991
615.381
619.346
622.879
625.982
628.648
630.875
632.667
634.022
634.931
635.413
635.43
635.077
634.231
632.968
631.284
629.185
626.675
623.761
620.451
616.75
612.666
608.205
603.376
598.186
592.648
586.771
580.564
574.039
567.208
560.085
552.685
545.022
537.112
528.97
520.613
512.056
503.318
494.416
485.368
476.19
466.9
457.515
448.05
438.52
428.939
419.321
409.678
400.023
390.369
380.731
371.123
361.56
352.056
342.626
333.291
324.066
314.97
306.022
297.247
288.666
280.291
272.157
264.292
256.725
249.48
242.599
236.083
229.937
224.174
218.794
213.82
209.153
204.923
15.9805
7.64061
5.84213
5.2225
5.00595
4.98072
5.07019
5.23788
5.46888
5.75475
6.09107
6.47624
6.90971
7.39257
7.92702
8.51618
9.1641
9.87572
10.6566
11.5126
12.4508
13.4792
14.6065
15.8423
17.1968
18.6807
20.3056
22.0838
24.0278
26.1507
28.4657
30.9858
33.7245
36.6948
39.9093
43.3797
47.117
51.1316
55.4327
60.0278
64.9227
70.1225
75.6323
81.4548
87.5915
94.0454
100.817
107.906
115.299
122.985
130.953
139.194
147.697
156.451
165.446
174.669
184.109
193.754
203.593
213.613
223.802
234.149
244.641
255.267
266.014
276.871
287.825
298.865
309.978
321.153
332.377
343.639
354.926
366.225
377.524
388.81
400.07
411.291
422.459
433.561
444.583
455.511
466.329
477.024
487.58
497.981
508.215
518.264
528.113
537.746
547.148
556.302
565.195
573.811
582.135
590.153
597.85
605.213
612.229
618.887
625.175
631.082
636.597
641.711
646.416
650.707
654.582
658.033
661.054
663.645
665.81
667.544
668.84
669.715
670.17