/*--------------------------------*- C++ -*----------------------------------*\
  =========                 |
  \\      /  F ield         | OpenFOAM: The Open Source CFD Toolbox
   \\    /   O peration     | Website:  https://openfoam.org
    \\  /    A nd           | Version:  8
     \\/     M anipulation  |
\*---------------------------------------------------------------------------*/
FoamFile
{
    version     2.0;
    format      ascii;
    class       volScalarField;
    location    "200";
    object      k;
}
// * * * * * * * * * * * * * * * * * * * * * * * * * * * * * * * * * * * * * //

dimensions      [0 2 -2 0 0 0 0];

internalField   nonuniform List<scalar> 
12225
(
0.362813
0.343993
0.327744
0.30982
0.295398
0.283485
0.27551
0.270285
0.270341
0.271882
0.276061
0.280699
0.289888
0.295772
0.306697
0.313251
0.324075
0.334096
0.440186
0.468698
0.461605
0.44837
0.450349
0.458314
0.474539
0.498561
0.524394
0.552149
0.58076
0.606214
0.633886
0.653965
0.679869
0.693342
0.717748
0.72881
0.390541
0.417873
0.420231
0.416826
0.411628
0.407804
0.408018
0.410037
0.414557
0.421403
0.430737
0.439722
0.451206
0.461179
0.4729
0.483629
0.493621
0.506313
0.377546
0.386982
0.391406
0.391341
0.390222
0.387896
0.385662
0.384081
0.382882
0.382896
0.383388
0.384326
0.386307
0.388476
0.390928
0.394279
0.396557
0.401081
0.374561
0.37609
0.378411
0.378665
0.378263
0.377205
0.375488
0.373738
0.37201
0.370454
0.369259
0.368106
0.367383
0.366808
0.366447
0.366348
0.366364
0.36673
0.373814
0.37271
0.372645
0.372383
0.37176
0.370817
0.369553
0.368082
0.366571
0.364976
0.363528
0.362063
0.360755
0.359529
0.358397
0.35743
0.356444
0.355792
0.373782
0.371742
0.370386
0.369287
0.368233
0.367114
0.365915
0.364587
0.363238
0.361808
0.360422
0.359023
0.357677
0.356382
0.35512
0.353966
0.352794
0.351805
0.37382
0.37156
0.369634
0.367977
0.3665
0.365107
0.363775
0.362429
0.361107
0.359766
0.35845
0.357143
0.355863
0.354622
0.3534
0.352249
0.351098
0.350052
0.373832
0.371553
0.369449
0.367525
0.365776
0.364153
0.362645
0.361199
0.359817
0.358473
0.357169
0.355902
0.354667
0.353474
0.352307
0.351195
0.350096
0.349072
0.373831
0.37156
0.369418
0.367405
0.365529
0.363772
0.362133
0.360585
0.359122
0.357728
0.356394
0.355117
0.353888
0.35271
0.351569
0.350481
0.349419
0.34842
0.373829
0.37156
0.369413
0.367378
0.365458
0.363645
0.361937
0.360324
0.358798
0.357353
0.355979
0.354672
0.353424
0.352235
0.351094
0.350008
0.348958
0.347968
0.373828
0.371558
0.369409
0.36737
0.365439
0.363609
0.361875
0.360233
0.358677
0.357201
0.3558
0.354468
0.3532
0.351994
0.350842
0.349747
0.348695
0.3477
0.373827
0.371556
0.369405
0.367365
0.36543
0.363593
0.361851
0.360197
0.358626
0.357134
0.355715
0.354367
0.353084
0.351864
0.3507
0.349594
0.348535
0.347531
0.373827
0.371555
0.369401
0.367359
0.365422
0.363583
0.361837
0.360178
0.3586
0.357101
0.355674
0.354317
0.353024
0.351794
0.350622
0.349506
0.34844
0.347427
0.373826
0.371553
0.369398
0.367355
0.365416
0.363575
0.361826
0.360164
0.358584
0.357081
0.355651
0.354289
0.352993
0.351758
0.35058
0.349459
0.348388
0.347369
0.373826
0.371552
0.369396
0.367351
0.36541
0.363567
0.361817
0.360153
0.358572
0.357067
0.355634
0.354271
0.352972
0.351734
0.350554
0.34943
0.348357
0.347334
0.373825
0.371551
0.369394
0.367348
0.365406
0.363562
0.36181
0.360145
0.358562
0.357055
0.355621
0.354256
0.352955
0.351716
0.350535
0.349408
0.348334
0.347309
0.373825
0.371551
0.369393
0.367346
0.365403
0.363558
0.361805
0.360139
0.358555
0.357047
0.355612
0.354246
0.352944
0.351703
0.350521
0.349393
0.348317
0.347291
0.373825
0.37155
0.369393
0.367346
0.365402
0.363557
0.361804
0.360137
0.358552
0.357044
0.355608
0.354241
0.352938
0.351697
0.350514
0.349385
0.348308
0.347281
0.373825
0.371551
0.369393
0.367347
0.365404
0.363559
0.361806
0.36014
0.358555
0.357047
0.355611
0.354244
0.352942
0.351701
0.350517
0.349389
0.348313
0.347285
0.373825
0.371551
0.369395
0.367349
0.365407
0.363563
0.361811
0.360146
0.358562
0.357055
0.355621
0.354256
0.352955
0.351716
0.350534
0.349408
0.348333
0.347308
0.373826
0.371552
0.369397
0.367352
0.365412
0.363571
0.361822
0.360161
0.358583
0.357083
0.355657
0.354299
0.353007
0.351775
0.350603
0.349484
0.348418
0.347399
0.373826
0.371554
0.369399
0.367359
0.365429
0.363603
0.361875
0.36024
0.358691
0.35722
0.355823
0.354494
0.353227
0.352019
0.350866
0.349763
0.348711
0.347701
0.373828
0.371551
0.369412
0.367417
0.365556
0.363819
0.362189
0.360651
0.359189
0.357794
0.356456
0.355172
0.353936
0.352746
0.351601
0.350496
0.349437
0.34841
0.373823
0.371554
0.369604
0.367893
0.366339
0.364892
0.363495
0.362122
0.360761
0.359414
0.358081
0.35677
0.355489
0.354238
0.353029
0.351856
0.350734
0.349645
0.373788
0.371991
0.371113
0.370266
0.36936
0.368311
0.367048
0.36563
0.364121
0.362575
0.36103
0.359522
0.358073
0.356682
0.355382
0.354142
0.35301
0.351924
0.374355
0.375572
0.377775
0.377858
0.377288
0.375886
0.373835
0.371641
0.369505
0.367482
0.365664
0.364084
0.36271
0.361535
0.36061
0.359818
0.359289
0.3588
0.379125
0.394296
0.398249
0.396573
0.392538
0.387603
0.383646
0.380448
0.378268
0.376852
0.376496
0.37674
0.377414
0.378689
0.38044
0.38242
0.384825
0.387135
0.408394
0.42754
0.422416
0.411055
0.402226
0.397923
0.398625
0.400962
0.406068
0.413052
0.420997
0.429825
0.438832
0.448185
0.457301
0.466545
0.475314
0.484173
0.36605
0.353416
0.341988
0.33021
0.318982
0.308381
0.299411
0.29167
0.285404
0.280333
0.276682
0.273866
0.272311
0.271173
0.27121
0.271472
0.272188
0.273388
0.00159174
0.007704
0.0136971
0.0193705
0.0253732
0.0317584
0.0385759
0.0457847
0.0532673
0.0608748
0.068462
0.0759073
0.0831142
0.0900081
0.0965278
0.102621
0.108239
0.113341
0.117896
0.121898
0.125377
0.128244
0.13036
0.133419
0.136035
0.138797
0.141324
0.145913
0.148043
0.14863
0.147249
0.145228
0.140624
0.136643
0.130008
0.142055
0.146384
0.155299
0.16153
0.169665
0.177168
0.185264
0.193341
0.20168
0.210141
0.218789
0.227588
0.23656
0.24569
0.25499
0.26445
0.274081
0.283871
0.293833
0.303954
0.314245
0.324693
0.335308
0.346076
0.357007
0.368085
0.37932
0.390694
0.402219
0.413871
0.425664
0.437573
0.449611
0.461751
0.474005
0.486346
0.498785
0.511293
0.523881
0.536519
0.549214
0.561938
0.574698
0.587464
0.600241
0.612998
0.625738
0.638431
0.651075
0.663637
0.676113
0.688468
0.700692
0.71275
0.724623
0.736279
0.747695
0.758862
0.769805
0.780615
0.79117
0.801483
0.81153
0.821304
0.830786
0.839961
0.848813
0.857325
0.865483
0.873271
0.880673
0.887675
0.894261
0.900419
0.906134
0.911395
0.916186
0.920502
0.924327
0.927659
0.930485
0.932807
0.934619
0.935929
0.936753
0.937004
0.936534
0.935736
0.934229
0.932356
0.930126
0.927328
0.923985
0.920182
0.915905
0.911185
0.906028
0.900464
0.894505
0.888179
0.881503
0.874493
0.867195
0.859645
0.851883
0.843948
0.835876
0.827702
0.819453
0.811163
0.802862
0.794582
0.786352
0.778204
0.770164
0.762265
0.754531
0.746989
0.739663
0.732578
0.725752
0.719206
0.712954
0.707013
0.701383
0.696082
0.691114
0.686473
0.68217
0.678426
0.677295
0.677507
0.677657
0.678214
0.679124
0.680371
0.681855
0.683547
0.685386
0.687261
0.688983
0.690159
0.690487
0.688704
0.667672
0.00679949
0.0225724
0.0327453
0.0406229
0.0477903
0.0549502
0.0623638
0.0700816
0.0780387
0.0861221
0.0942116
0.102204
0.110017
0.117591
0.124881
0.131854
0.13848
0.144739
0.150625
0.156156
0.16139
0.166443
0.171537
0.17702
0.183125
0.190107
0.197627
0.204431
0.210253
0.215721
0.221316
0.228583
0.238933
0.247576
0.258441
0.272992
0.286747
0.299221
0.311445
0.324462
0.337796
0.351491
0.365495
0.37982
0.394455
0.409404
0.424663
0.440236
0.456123
0.472328
0.488852
0.505698
0.522868
0.540366
0.558191
0.576346
0.59483
0.613646
0.63279
0.652265
0.672065
0.692192
0.712639
0.733404
0.754481
0.775867
0.797551
0.81953
0.841792
0.864332
0.887135
0.910194
0.933495
0.957027
0.980773
1.00472
1.02885
1.05315
1.0776
1.10219
1.12688
1.15167
1.17653
1.20143
1.22635
1.25127
1.27614
1.30095
1.32565
1.3502
1.37456
1.39867
1.42246
1.44586
1.46879
1.49139
1.51367
1.5356
1.55717
1.57833
1.59906
1.61931
1.63906
1.65827
1.67691
1.69494
1.71233
1.72905
1.74505
1.76032
1.77481
1.78849
1.80133
1.81331
1.8244
1.83457
1.8438
1.85207
1.85937
1.86568
1.87098
1.87527
1.87855
1.88047
1.8814
1.88174
1.88108
1.87923
1.87639
1.87257
1.8678
1.86211
1.85554
1.84812
1.83989
1.8309
1.8212
1.81084
1.79989
1.78841
1.77648
1.76416
1.75153
1.73864
1.72556
1.71235
1.69909
1.68583
1.67264
1.65958
1.64672
1.63411
1.62181
1.60987
1.59836
1.58732
1.57679
1.56682
1.55744
1.54867
1.54056
1.5331
1.52631
1.52019
1.5148
1.51045
1.50683
1.50394
1.50167
1.49994
1.49867
1.49763
1.49672
1.49575
1.49452
1.49282
1.49026
1.48691
1.47995
1.45574
0.0134896
0.0366377
0.049624
0.0594284
0.0681494
0.0765449
0.0849503
0.093494
0.102186
0.110976
0.119791
0.12856
0.137227
0.145756
0.154124
0.162322
0.170355
0.178239
0.18601
0.19373
0.201507
0.209502
0.21792
0.226959
0.236732
0.247174
0.257944
0.268785
0.279667
0.290903
0.302965
0.315957
0.329979
0.344342
0.359558
0.375547
0.391694
0.407973
0.424484
0.441415
0.458747
0.476476
0.49459
0.513091
0.531974
0.551242
0.570894
0.590933
0.611359
0.632174
0.653382
0.674982
0.696978
0.719369
0.742158
0.765343
0.788924
0.812901
0.837271
0.862032
0.88718
0.912711
0.93862
0.964902
0.991548
1.01855
1.0459
1.07359
1.10161
1.12995
1.15858
1.18751
1.21671
1.24616
1.27586
1.30578
1.3359
1.3662
1.39667
1.42727
1.45798
1.48878
1.51965
1.55055
1.58145
1.61233
1.64315
1.67388
1.70448
1.73493
1.76517
1.79517
1.8249
1.85433
1.88343
1.91218
1.94055
1.9685
1.99599
2.02298
2.04943
2.07529
2.10052
2.12508
2.14893
2.17201
2.1943
2.21573
2.23628
2.2559
2.27453
2.29216
2.30873
2.32421
2.33856
2.35175
2.36376
2.37455
2.3841
2.3924
2.39941
2.40513
2.40958
2.41261
2.41419
2.41473
2.41411
2.41211
2.40882
2.40429
2.39856
2.39166
2.38364
2.37453
2.3644
2.35329
2.34127
2.32842
2.31479
2.30049
2.28558
2.27016
2.25431
2.2381
2.22163
2.20497
2.18821
2.17142
2.15469
2.13809
2.12169
2.10558
2.08982
2.07448
2.05963
2.04533
2.03163
2.01858
2.00623
1.99462
1.98376
1.97369
1.96442
1.95593
1.94824
1.9414
1.93532
1.92999
1.92528
1.92108
1.91728
1.91368
1.91011
1.90641
1.9024
1.89793
1.89281
1.88725
1.87924
1.86072
0.0204967
0.0494853
0.0650966
0.0765999
0.0865815
0.0959662
0.105178
0.114414
0.123745
0.133174
0.14267
0.152193
0.161707
0.171193
0.180645
0.190072
0.199498
0.20896
0.218511
0.228227
0.238205
0.248565
0.259432
0.270911
0.283051
0.295807
0.309056
0.322696
0.336725
0.35126
0.36644
0.382318
0.398905
0.416085
0.433839
0.45211
0.470785
0.489809
0.509185
0.528963
0.549159
0.569781
0.59083
0.61231
0.634222
0.656569
0.679353
0.702576
0.726241
0.750351
0.774908
0.799915
0.825372
0.851282
0.877645
0.904462
0.931731
0.959453
0.987623
1.01624
1.0453
1.0748
1.10473
1.13509
1.16587
1.19705
1.22863
1.26061
1.29296
1.32567
1.35872
1.39211
1.42582
1.45982
1.4941
1.52863
1.5634
1.59837
1.63353
1.66885
1.7043
1.73986
1.77549
1.81117
1.84685
1.88252
1.91813
1.95365
1.98905
2.02428
2.05932
2.09412
2.12866
2.16288
2.19675
2.23023
2.26328
2.29584
2.32789
2.35935
2.3902
2.42037
2.44982
2.4785
2.50636
2.53334
2.5594
2.58449
2.60856
2.63155
2.65342
2.67413
2.69361
2.71185
2.72878
2.74438
2.7586
2.77142
2.7828
2.79273
2.80118
2.80813
2.81359
2.81754
2.81978
2.82061
2.82013
2.81809
2.81457
2.8096
2.80321
2.79546
2.78639
2.77604
2.76449
2.75178
2.738
2.72322
2.70752
2.69099
2.67373
2.65583
2.63739
2.61849
2.59924
2.57972
2.56004
2.54027
2.52051
2.50085
2.48137
2.46217
2.44331
2.42487
2.40694
2.38958
2.37285
2.35681
2.34151
2.32699
2.31328
2.30039
2.28834
2.27712
2.26671
2.25711
2.24826
2.24013
2.23261
2.22557
2.21889
2.21241
2.20595
2.19935
2.19251
2.18534
2.1778
2.17023
2.16122
2.14579
0.0272563
0.0612482
0.0792673
0.0923643
0.103523
0.113816
0.123754
0.133601
0.143484
0.153457
0.16353
0.173694
0.183937
0.194256
0.204656
0.215155
0.225786
0.236592
0.247627
0.258957
0.270659
0.282816
0.295508
0.308794
0.322702
0.337215
0.352293
0.367896
0.384017
0.40069
0.417962
0.435862
0.454386
0.473494
0.493153
0.513327
0.533973
0.555059
0.576577
0.598539
0.620959
0.643843
0.667199
0.691029
0.715339
0.740133
0.765415
0.791189
0.817459
0.844229
0.871502
0.89928
0.927568
0.956366
0.985676
1.0155
1.04584
1.07669
1.10805
1.13992
1.17229
1.20516
1.23853
1.27239
1.30672
1.34153
1.37679
1.41251
1.44865
1.48522
1.52219
1.55954
1.59726
1.63532
1.67371
1.7124
1.75136
1.79057
1.83
1.86963
1.90941
1.94933
1.98934
2.02942
2.06952
2.10962
2.14967
2.18964
2.22949
2.26918
2.30866
2.3479
2.38685
2.42546
2.46369
2.50149
2.5388
2.57559
2.61179
2.64735
2.68221
2.71634
2.74966
2.78212
2.81367
2.84425
2.8738
2.90228
2.92961
2.95575
2.98065
3.00424
3.02649
3.04733
3.06673
3.08463
3.10101
3.11581
3.12901
3.14057
3.15048
3.15872
3.16528
3.17015
3.1732
3.17449
3.1743
3.17239
3.16881
3.16358
3.15675
3.14836
3.13846
3.12711
3.11436
3.10029
3.08497
3.06849
3.05093
3.03239
3.01298
2.99279
2.97193
2.95049
2.92859
2.90633
2.8838
2.86111
2.83836
2.81564
2.79306
2.77069
2.74863
2.72697
2.70579
2.68515
2.66514
2.64582
2.62723
2.60942
2.59242
2.57626
2.56094
2.54645
2.53279
2.51992
2.5078
2.49638
2.48556
2.47523
2.46528
2.45556
2.44591
2.43623
2.42642
2.4165
2.40652
2.39688
2.38651
2.37203
0.0335641
0.0717878
0.0919652
0.106532
0.118792
0.129939
0.140559
0.150968
0.161343
0.171782
0.182332
0.193016
0.203846
0.214834
0.225995
0.237356
0.248951
0.260821
0.273016
0.285591
0.298604
0.312113
0.32617
0.340816
0.35607
0.371937
0.388404
0.405456
0.423087
0.441303
0.460115
0.479529
0.499539
0.520129
0.541279
0.56297
0.585182
0.607898
0.631112
0.654826
0.679046
0.703779
0.729029
0.754805
0.78111
0.807952
0.835336
0.863267
0.891752
0.920795
0.950401
0.980575
1.01132
1.04264
1.07454
1.10701
1.14007
1.17371
1.20792
1.24272
1.27809
1.31404
1.35054
1.38761
1.42523
1.46339
1.50207
1.54128
1.58098
1.62118
1.66184
1.70294
1.74448
1.78642
1.82874
1.87141
1.91441
1.95771
2.00127
2.04506
2.08905
2.1332
2.17748
2.22185
2.26627
2.31069
2.35509
2.3994
2.4436
2.48763
2.53145
2.57501
2.61825
2.66112
2.70358
2.74556
2.78701
2.82788
2.86812
2.90765
2.94642
2.98438
3.02146
3.05761
3.09276
3.12684
3.15981
3.19159
3.22213
3.25137
3.27925
3.30571
3.33069
3.35413
3.376
3.39623
3.41478
3.43161
3.44667
3.45995
3.47139
3.481
3.48875
3.49464
3.4986
3.50051
3.50075
3.4991
3.4956
3.49026
3.48312
3.47423
3.46364
3.45141
3.43759
3.42227
3.40553
3.38745
3.36812
3.34765
3.32614
3.30369
3.28043
3.25646
3.23189
3.20682
3.18139
3.15568
3.12981
3.10388
3.078
3.05226
3.02677
3.0016
2.97686
2.95261
2.92895
2.90592
2.8836
2.86203
2.84126
2.8213
2.80218
2.78389
2.76642
2.74975
2.73383
2.71863
2.70405
2.69002
2.67642
2.66313
2.65005
2.63709
2.6242
2.61144
2.59895
2.58711
2.57505
2.56024
0.0392631
0.0810023
0.103056
0.118931
0.132189
0.144123
0.155375
0.166303
0.177123
0.187966
0.198914
0.210016
0.221308
0.232816
0.244568
0.256595
0.268931
0.281616
0.294694
0.30821
0.322209
0.336734
0.351821
0.367498
0.383786
0.400691
0.418214
0.436349
0.455093
0.474443
0.494399
0.514961
0.536123
0.557877
0.580216
0.603128
0.626604
0.650638
0.675226
0.700369
0.726071
0.752338
0.779175
0.806591
0.834593
0.863188
0.892384
0.922188
0.952607
0.983648
1.01532
1.04762
1.08057
1.11416
1.1484
1.1833
1.21885
1.25506
1.29193
1.32946
1.36764
1.40647
1.44595
1.48607
1.52682
1.56819
1.61017
1.65275
1.6959
1.73962
1.78388
1.82866
1.87394
1.91969
1.96588
2.01249
2.05948
2.10682
2.15448
2.20241
2.25058
2.29896
2.34749
2.39613
2.44484
2.49358
2.5423
2.59094
2.63947
2.68781
2.73594
2.78377
2.83127
2.87837
2.925
2.97113
3.01668
3.06159
3.10581
3.14926
3.1919
3.23364
3.27444
3.31422
3.35291
3.39046
3.4268
3.46186
3.49558
3.52789
3.55873
3.58804
3.61575
3.64181
3.66615
3.68873
3.70949
3.72838
3.74536
3.76039
3.77344
3.78449
3.79351
3.80049
3.80541
3.80812
3.80887
3.80759
3.80427
3.79892
3.79157
3.78228
3.77109
3.75807
3.74327
3.72678
3.70867
3.68903
3.66797
3.64559
3.62198
3.59728
3.57158
3.54502
3.51771
3.48976
3.46129
3.43242
3.40327
3.37394
3.34454
3.31518
3.28597
3.25699
3.22835
3.20013
3.17241
3.14527
3.11878
3.09299
3.06796
3.04371
3.02028
2.99768
2.9759
2.95493
2.93475
2.91531
2.89657
2.87845
2.86088
2.84377
2.82703
2.81062
2.79453
2.77887
2.76378
2.74964
2.73562
2.71979
0.0442423
0.0888337
0.112465
0.129457
0.143584
0.156218
0.168041
0.179441
0.190661
0.201859
0.213142
0.224585
0.23624
0.24815
0.260351
0.27288
0.285773
0.299067
0.3128
0.327012
0.341736
0.357007
0.372853
0.389296
0.406351
0.424029
0.442334
0.461267
0.480825
0.501008
0.521814
0.543242
0.565288
0.587951
0.611227
0.635113
0.659606
0.684705
0.710409
0.736723
0.763652
0.7912
0.819378
0.848192
0.877653
0.907769
0.93855
0.970005
1.00214
1.03498
1.06851
1.10275
1.13772
1.1734
1.20982
1.24697
1.28487
1.32351
1.36289
1.40302
1.4439
1.48551
1.52786
1.57095
1.61475
1.65926
1.70448
1.75037
1.79693
1.84414
1.89197
1.9404
1.9894
2.03895
2.08901
2.13955
2.19054
2.24193
2.29369
2.34578
2.39815
2.45075
2.50354
2.55647
2.6095
2.66255
2.7156
2.76857
2.82141
2.87406
2.92647
2.97857
3.0303
3.08159
3.13238
3.18261
3.23221
3.28111
3.32926
3.37659
3.42302
3.46849
3.51294
3.55629
3.59847
3.63941
3.67906
3.71733
3.75416
3.78948
3.82323
3.85534
3.88574
3.91437
3.94116
3.96606
3.98901
4.00996
4.02887
4.04567
4.06035
4.07287
4.0832
4.09132
4.09722
4.1008
4.10216
4.10132
4.09826
4.09297
4.08549
4.07587
4.06415
4.0504
4.03468
4.01707
3.99764
3.97649
3.95372
3.92943
3.90374
3.87675
3.8486
3.8194
3.78927
3.75834
3.72673
3.69457
3.66197
3.62906
3.59593
3.56272
3.52952
3.49645
3.46359
3.43106
3.39894
3.36731
3.33625
3.30583
3.27611
3.24714
3.21896
3.1916
3.16508
3.13939
3.11453
3.09049
3.06723
3.04473
3.02293
3.00177
2.98121
2.96122
2.94186
2.92322
2.90549
2.88897
2.87286
2.85565
0.0484347
0.0952707
0.120178
0.138088
0.152943
0.166176
0.178496
0.190312
0.201885
0.213394
0.224963
0.236685
0.248626
0.260843
0.27338
0.286278
0.299574
0.313306
0.327507
0.34221
0.357446
0.373243
0.389622
0.406603
0.424201
0.442426
0.461284
0.48078
0.500916
0.521694
0.543114
0.565178
0.587886
0.611239
0.635238
0.659886
0.685183
0.711134
0.737743
0.765016
0.792959
0.821583
0.850897
0.880912
0.911639
0.943089
0.975275
1.00821
1.0419
1.07636
1.11161
1.14765
1.18449
1.22214
1.26061
1.29991
1.34005
1.38102
1.42284
1.46549
1.50899
1.55333
1.59851
1.64451
1.69133
1.73896
1.78738
1.83658
1.88654
1.93723
1.98863
2.04072
2.09346
2.14682
2.20077
2.25527
2.31027
2.36574
2.42163
2.47789
2.53447
2.59132
2.64838
2.70561
2.76294
2.82031
2.87767
2.93495
2.99208
3.04901
3.10567
3.16198
3.21789
3.27331
3.32819
3.38244
3.43601
3.48882
3.54081
3.5919
3.64202
3.6911
3.73907
3.78586
3.8314
3.87561
3.91843
3.95978
3.9996
4.03781
4.07434
4.10913
4.1421
4.1732
4.20234
4.22948
4.25455
4.2775
4.29826
4.3168
4.33307
4.34704
4.35866
4.36793
4.37482
4.37927
4.38129
4.38095
4.37819
4.37302
4.36546
4.35556
4.34337
4.32895
4.31236
4.29367
4.27297
4.25035
4.2259
4.19974
4.17197
4.14271
4.11209
4.08022
4.04724
4.01327
3.97844
3.94288
3.90672
3.87007
3.83306
3.7958
3.75842
3.72101
3.6837
3.64659
3.60977
3.57334
3.53739
3.502
3.46726
3.43321
3.39993
3.36746
3.33583
3.30508
3.27522
3.24627
3.21823
3.1911
3.16485
3.13948
3.11497
3.09133
3.06862
3.04698
3.02657
3.00765
2.98942
2.9706
0.0518108
0.100347
0.126245
0.144879
0.160317
0.17404
0.186774
0.198943
0.210819
0.222592
0.2344
0.246347
0.258511
0.270956
0.283734
0.296891
0.310464
0.32449
0.339002
0.354028
0.369598
0.385734
0.402458
0.419786
0.437733
0.456311
0.475529
0.495395
0.515913
0.53709
0.55893
0.581438
0.604618
0.628475
0.653014
0.678242
0.704166
0.730792
0.758128
0.786185
0.814973
0.844505
0.874793
0.905851
0.937692
0.970332
1.00379
1.03807
1.07319
1.10917
1.14602
1.18375
1.22238
1.26192
1.30237
1.34375
1.38607
1.42933
1.47353
1.51869
1.56479
1.61183
1.65982
1.70873
1.75857
1.80932
1.86097
1.91349
1.96686
2.02106
2.07606
2.13183
2.18834
2.24554
2.3034
2.36187
2.42091
2.48046
2.54049
2.60092
2.66171
2.7228
2.78412
2.84562
2.90723
2.96887
3.03049
3.09202
3.15338
3.2145
3.27531
3.33574
3.3957
3.45514
3.51396
3.5721
3.62949
3.68604
3.74169
3.79636
3.84998
3.90247
3.95377
4.00379
4.05247
4.09973
4.1455
4.18971
4.23229
4.27317
4.31228
4.34954
4.3849
4.41827
4.44959
4.4788
4.50583
4.53062
4.55313
4.57328
4.59105
4.60638
4.61924
4.6296
4.63744
4.64272
4.64542
4.64558
4.64317
4.63813
4.63052
4.62037
4.60776
4.59272
4.57531
4.55561
4.5337
4.50966
4.4836
4.45561
4.4258
4.3943
4.36122
4.3267
4.29087
4.25384
4.21576
4.17676
4.13697
4.09651
4.05551
4.0141
3.97239
3.93051
3.88857
3.84669
3.80497
3.76353
3.72246
3.68186
3.64183
3.60246
3.56381
3.52596
3.48897
3.45291
3.41781
3.38373
3.3507
3.31877
3.28794
3.25823
3.22968
3.20233
3.17625
3.1516
3.12851
3.1072
3.08687
3.06655
0.0543768
0.104136
0.130764
0.149939
0.165821
0.179925
0.192986
0.205437
0.217558
0.229545
0.241542
0.253661
0.265988
0.278592
0.29153
0.30485
0.318593
0.332795
0.347486
0.362697
0.378453
0.394775
0.411685
0.429199
0.447334
0.466103
0.485517
0.505589
0.526327
0.547742
0.569841
0.592634
0.616129
0.640337
0.665267
0.690929
0.717335
0.744495
0.772421
0.801128
0.830632
0.860947
0.89209
0.924079
0.956931
0.990664
1.0253
1.06084
1.09732
1.13476
1.17315
1.21254
1.25291
1.29431
1.33672
1.38017
1.42467
1.47021
1.51681
1.56448
1.6132
1.66297
1.7138
1.76567
1.81856
1.87248
1.92738
1.98326
2.04009
2.09784
2.15647
2.21596
2.27625
2.33731
2.39909
2.46155
2.52462
2.58825
2.65239
2.71697
2.78193
2.8472
2.91272
2.9784
3.04419
3.11
3.17577
3.24141
3.30684
3.37199
3.43678
3.50113
3.56496
3.62819
3.69073
3.75252
3.81347
3.8735
3.93254
3.99051
4.04733
4.10293
4.15724
4.21018
4.26168
4.31167
4.36007
4.40682
4.45185
4.49508
4.53645
4.57589
4.61332
4.64869
4.68191
4.71294
4.74169
4.76811
4.79214
4.81372
4.83281
4.84937
4.86333
4.87469
4.88339
4.88943
4.89277
4.8934
4.89136
4.88646
4.8788
4.86845
4.85544
4.83983
4.82167
4.80103
4.77798
4.7526
4.72499
4.69525
4.66348
4.62981
4.59435
4.55723
4.51859
4.47855
4.43725
4.39483
4.35141
4.30714
4.26213
4.21652
4.17045
4.12402
4.07738
4.03064
3.98392
3.93735
3.89103
3.84509
3.79963
3.75477
3.71059
3.66721
3.6247
3.58316
3.54268
3.50333
3.46519
3.42833
3.39283
3.35872
3.32609
3.29499
3.26555
3.23789
3.21215
3.18852
3.16618
3.14443
0.056174
0.106751
0.13387
0.15342
0.169614
0.18399
0.197289
0.209948
0.22225
0.234393
0.246525
0.258762
0.271195
0.283896
0.296924
0.310328
0.32415
0.338426
0.353188
0.368464
0.38428
0.40066
0.417623
0.43519
0.453379
0.472205
0.491686
0.511834
0.532665
0.554192
0.576428
0.599388
0.623083
0.647529
0.672739
0.698729
0.725516
0.753113
0.78154
0.810813
0.840954
0.871983
0.90392
0.936787
0.970605
1.0054
1.04118
1.07798
1.11581
1.15469
1.19465
1.23571
1.27786
1.32115
1.36557
1.41114
1.45787
1.50577
1.55484
1.60508
1.6565
1.70909
1.76283
1.81773
1.87376
1.9309
1.98914
2.04844
2.10878
2.17012
2.23242
2.29565
2.35974
2.42467
2.49036
2.55677
2.62383
2.69148
2.75966
2.82829
2.89731
2.96663
3.03619
3.1059
3.17569
3.24546
3.31515
3.38466
3.45391
3.52282
3.5913
3.65927
3.72664
3.79333
3.85924
3.92431
3.98844
4.05156
4.11359
4.17445
4.23406
4.29235
4.34924
4.40466
4.45854
4.51082
4.56141
4.61026
4.6573
4.70245
4.74566
4.78686
4.82598
4.86295
4.89771
4.93019
4.96033
4.98806
5.01334
5.03609
5.05627
5.07383
5.08872
5.1009
5.11035
5.11704
5.12092
5.12199
5.12029
5.11555
5.10784
5.09729
5.08394
5.06782
5.04897
5.02747
5.00336
4.97674
4.94769
4.91631
4.88269
4.84696
4.80923
4.76964
4.7283
4.68535
4.64093
4.59517
4.54821
4.50019
4.45124
4.4015
4.35109
4.30016
4.24883
4.19724
4.14552
4.0938
4.04222
3.9909
3.93998
3.88957
3.83982
3.79083
3.74275
3.69567
3.64974
3.60506
3.56177
3.51996
3.47974
3.44122
3.4045
3.36968
3.33689
3.30627
3.27794
3.25206
3.22784
3.20484
0.0572792
0.108322
0.135717
0.155491
0.171877
0.186421
0.19987
0.212659
0.225073
0.237312
0.249525
0.261827
0.274309
0.287043
0.300091
0.313502
0.32732
0.341583
0.356321
0.371566
0.387344
0.40368
0.420596
0.438116
0.45626
0.475048
0.494501
0.514637
0.535476
0.557037
0.579336
0.602394
0.626227
0.650855
0.676294
0.702565
0.729687
0.757686
0.786585
0.816408
0.847181
0.878929
0.911677
0.94545
0.980274
1.01617
1.05317
1.09129
1.13056
1.171
1.21262
1.25546
1.29952
1.34482
1.39139
1.43922
1.48833
1.53873
1.59041
1.64339
1.69764
1.75318
1.80997
1.86802
1.9273
1.98778
2.04943
2.11223
2.17614
2.24111
2.3071
2.37406
2.44194
2.51067
2.58021
2.65048
2.72141
2.79294
2.86499
2.93748
3.01033
3.08347
3.1568
3.23024
3.3037
3.3771
3.45035
3.52335
3.59602
3.66826
3.73999
3.81111
3.88154
3.95119
4.01997
4.0878
4.15459
4.22025
4.28472
4.34791
4.40974
4.47015
4.52905
4.58638
4.64207
4.69605
4.74827
4.79865
4.84714
4.89367
4.93819
4.98062
5.02092
5.05901
5.09484
5.12834
5.15944
5.1881
5.21425
5.23784
5.2588
5.2771
5.29267
5.30549
5.31551
5.3227
5.32702
5.32846
5.32706
5.32246
5.3147
5.30399
5.29033
5.27375
5.2543
5.23203
5.20699
5.17925
5.1489
5.11603
5.08072
5.0431
5.00327
4.96136
4.91749
4.8718
4.82443
4.7755
4.72517
4.67356
4.62081
4.56707
4.51247
4.45715
4.40126
4.34493
4.28831
4.23154
4.17477
4.11815
4.06182
4.00594
3.95066
3.89613
3.8425
3.78993
3.73858
3.68861
3.64018
3.59345
3.54856
3.50567
3.4649
3.42641
3.39033
3.35683
3.32601
3.298
3.27205
3.248
0.0576677
0.108879
0.136429
0.156316
0.172792
0.187412
0.200928
0.213774
0.226234
0.238504
0.250733
0.263036
0.275503
0.288208
0.301212
0.314566
0.328313
0.342492
0.357138
0.372281
0.387951
0.404175
0.42098
0.438392
0.456436
0.475138
0.494521
0.514611
0.535433
0.557013
0.579372
0.602533
0.626518
0.651349
0.677048
0.703628
0.731126
0.75958
0.789021
0.819479
0.850984
0.883568
0.917261
0.95209
0.988084
1.02527
1.06368
1.10333
1.14425
1.18647
1.23
1.27487
1.32108
1.36867
1.41763
1.46798
1.51973
1.57288
1.62742
1.68336
1.74068
1.79936
1.8594
1.92076
1.98343
2.04736
2.11252
2.17888
2.24638
2.31498
2.38463
2.45526
2.52681
2.59922
2.67242
2.74634
2.8209
2.89602
2.97162
3.04761
3.12391
3.20044
3.27709
3.35378
3.43042
3.50691
3.58315
3.65906
3.73453
3.80948
3.88381
3.95743
4.03025
4.10217
4.17311
4.24299
4.31171
4.3792
4.44537
4.51016
4.57348
4.63527
4.69544
4.75395
4.81072
4.86571
4.91884
4.97006
5.01932
5.06656
5.11174
5.15479
5.19566
5.23429
5.27063
5.30462
5.3362
5.36531
5.39191
5.41594
5.43733
5.45604
5.47202
5.48522
5.49561
5.50313
5.50777
5.50949
5.50832
5.50387
5.49607
5.4852
5.47129
5.45435
5.4344
5.41148
5.38565
5.35697
5.3255
5.29132
5.25453
5.21523
5.17352
5.12953
5.08337
5.03518
4.9851
4.93325
4.87977
4.82481
4.7685
4.711
4.65243
4.59295
4.5327
4.47184
4.41052
4.3489
4.28713
4.22538
4.16383
4.10263
4.04197
3.98204
3.92301
3.86508
3.80844
3.7533
3.69985
3.64831
3.59886
3.5517
3.50695
3.46479
3.42545
3.3891
3.35585
3.32584
3.29834
3.27352
0.0575583
0.108713
0.136233
0.156109
0.172575
0.187186
0.200688
0.213514
0.225947
0.238185
0.250374
0.262628
0.275037
0.287675
0.300601
0.313867
0.327517
0.341591
0.356125
0.371154
0.386707
0.402817
0.419515
0.436831
0.454794
0.47343
0.492773
0.512854
0.533704
0.555354
0.577832
0.601164
0.625382
0.650516
0.676603
0.703644
0.7317
0.760811
0.791017
0.822356
0.854864
0.888578
0.923535
0.959761
0.997284
1.03613
1.07634
1.11793
1.16094
1.20536
1.25124
1.29857
1.34739
1.39768
1.44947
1.50276
1.55754
1.61381
1.67157
1.73079
1.79145
1.85355
1.91704
1.9819
2.04808
2.11555
2.18426
2.25417
2.3252
2.39732
2.47045
2.54452
2.61948
2.69524
2.77174
2.84888
2.92659
3.00478
3.08337
3.16226
3.24137
3.3206
3.39986
3.47906
3.55809
3.63686
3.71527
3.79323
3.87064
3.9474
4.02343
4.09863
4.1729
4.24617
4.31833
4.38932
4.45903
4.5274
4.59434
4.6598
4.72369
4.78594
4.8465
4.90529
4.96227
5.01739
5.0706
5.12184
5.17108
5.21826
5.26335
5.30629
5.34704
5.38555
5.42178
5.45566
5.48715
5.51621
5.54278
5.5668
5.58823
5.607
5.62308
5.6364
5.64692
5.65459
5.6594
5.66133
5.66035
5.65605
5.64822
5.63726
5.62318
5.60597
5.58566
5.56227
5.53584
5.50641
5.47405
5.43883
5.40082
5.36011
5.31681
5.27104
5.22289
5.17252
5.12003
5.06557
5.00928
4.95129
4.89174
4.83078
4.76856
4.70523
4.64094
4.57585
4.51012
4.44393
4.37745
4.31086
4.24435
4.17811
4.11233
4.04724
3.98305
3.91998
3.85827
3.79804
3.73964
3.68333
3.62935
3.57796
3.52935
3.48387
3.44161
3.40274
3.36737
3.33564
3.30685
3.28155
0.0571628
0.108082
0.135395
0.155143
0.171498
0.185999
0.199395
0.212116
0.224442
0.23657
0.248646
0.260782
0.273066
0.285571
0.298359
0.31148
0.324983
0.338911
0.353301
0.368192
0.383621
0.399625
0.416242
0.433511
0.451474
0.470166
0.489622
0.50988
0.530982
0.552979
0.575887
0.599739
0.624571
0.650416
0.677288
0.70523
0.734329
0.764638
0.796198
0.829047
0.863223
0.898756
0.935675
0.974015
1.01381
1.05508
1.09786
1.14219
1.18808
1.23554
1.28456
1.33516
1.38733
1.44108
1.49641
1.5533
1.61174
1.67171
1.73318
1.79614
1.86055
1.92636
1.99355
2.06207
2.13186
2.20287
2.27505
2.34835
2.42268
2.498
2.57422
2.65128
2.7291
2.80761
2.88672
2.96634
3.04641
3.12682
3.20749
3.28832
3.36924
3.45014
3.53092
3.6115
3.69179
3.77167
3.85106
3.92987
4.008
4.08535
4.16184
4.23737
4.31187
4.38523
4.45739
4.52825
4.59774
4.66578
4.73231
4.79726
4.86057
4.92216
4.98198
5.03998
5.09611
5.15034
5.20263
5.25293
5.3012
5.34742
5.39155
5.43355
5.47339
5.51103
5.54643
5.57954
5.61031
5.63873
5.66472
5.68826
5.70928
5.72773
5.74356
5.75671
5.76712
5.77476
5.7796
5.78165
5.78082
5.77667
5.76884
5.75786
5.74369
5.72635
5.70582
5.68214
5.65531
5.62538
5.59238
5.55637
5.51743
5.47562
5.43104
5.3838
5.334
5.28177
5.22723
5.17051
5.11174
5.05107
4.98863
4.92457
4.85904
4.79219
4.7242
4.65521
4.58541
4.51499
4.44412
4.373
4.30179
4.2307
4.15999
4.08991
4.02071
3.95266
3.88605
3.82126
3.75846
3.69793
3.63998
3.58488
3.53297
3.48433
3.43926
3.398
3.36065
3.32739
3.29752
3.27205
0.056253
0.10672
0.133694
0.153197
0.169333
0.183633
0.19684
0.209385
0.221549
0.233528
0.245466
0.257473
0.269637
0.282031
0.294718
0.307755
0.321192
0.335078
0.349458
0.36438
0.379887
0.396022
0.412835
0.430378
0.448715
0.467868
0.48788
0.508799
0.530665
0.5535
0.577323
0.602221
0.628258
0.655497
0.684009
0.713836
0.74503
0.777639
0.811706
0.847268
0.884356
0.922999
0.963219
1.00504
1.04847
1.09354
1.14025
1.18861
1.2386
1.29023
1.34347
1.39833
1.45478
1.51281
1.57238
1.63348
1.69605
1.76008
1.82552
1.89232
1.96044
2.02983
2.10043
2.1722
2.24507
2.31899
2.39389
2.46971
2.54638
2.62383
2.702
2.7808
2.86018
2.94004
3.02032
3.10093
3.18179
3.26282
3.34394
3.42506
3.50609
3.58694
3.66753
3.74777
3.82756
3.90683
3.98547
4.0634
4.14054
4.21679
4.29207
4.3663
4.43939
4.51126