/*--------------------------------*- C++ -*----------------------------------*\
  =========                 |
  \\      /  F ield         | OpenFOAM: The Open Source CFD Toolbox
   \\    /   O peration     | Website:  https://openfoam.org
    \\  /    A nd           | Version:  8
     \\/     M anipulation  |
\*---------------------------------------------------------------------------*/
FoamFile
{
    version     2.0;
    format      ascii;
    class       volScalarField;
    location    "200";
    object      nut;
}
// * * * * * * * * * * * * * * * * * * * * * * * * * * * * * * * * * * * * * //

dimensions      [0 2 -1 0 0 0 0];

internalField   nonuniform List<scalar> 
12225
(
4.14924e-05
3.93409e-05
3.74829e-05
3.54331e-05
3.37838e-05
3.24212e-05
3.15092e-05
3.09116e-05
3.09181e-05
3.10938e-05
3.15725e-05
3.21007e-05
3.31529e-05
3.38245e-05
3.50729e-05
3.58158e-05
3.68822e-05
3.86248e-05
0.000332215
0.000215176
0.00017927
0.000157677
0.000146209
0.000138208
0.000132729
0.000131667
0.000129493
0.00013008
0.000129032
0.000129455
0.000128644
0.000128576
0.000128069
0.000127415
0.000127479
0.000125991
0.000668679
0.00045066
0.000355751
0.000309835
0.000275276
0.000251102
0.000231699
0.000217282
0.000202656
0.000192135
0.000182599
0.000175212
0.000169353
0.00016368
0.000160274
0.000155548
0.00015381
0.000149727
0.000801681
0.000691666
0.000572542
0.000500061
0.00044937
0.000411994
0.00038076
0.000356013
0.000333987
0.000314783
0.000298354
0.000281623
0.000270319
0.000256051
0.000248188
0.000236092
0.000230511
0.000220316
0.000839623
0.00081019
0.000740696
0.00067642
0.000623919
0.000581393
0.000545853
0.000514563
0.000489502
0.000464428
0.000445852
0.000424051
0.000409919
0.00039078
0.000379872
0.000362986
0.000354754
0.000339294
0.000850344
0.000843278
0.000819553
0.000786529
0.000750764
0.000715889
0.000685747
0.000656132
0.000632538
0.000607512
0.000588987
0.000567233
0.000552266
0.000533073
0.00052077
0.000503616
0.000493643
0.000477253
0.000851579
0.000851019
0.000843299
0.000833478
0.000817108
0.000796952
0.000777866
0.000756734
0.000738895
0.000719141
0.000703526
0.00068561
0.00067211
0.000655902
0.000644298
0.000629431
0.000619829
0.000604944
0.000851581
0.000851816
0.000850038
0.000847462
0.000841401
0.00083375
0.000824822
0.000813432
0.000802808
0.000790467
0.00077971
0.000767532
0.000757417
0.000745767
0.000736539
0.000725441
0.000717467
0.000705845
0.000851673
0.000851531
0.000851015
0.000850343
0.000848875
0.00084617
0.000843026
0.000838304
0.000833402
0.000827359
0.000821215
0.000814765
0.000808427
0.000801496
0.000795287
0.00078831
0.00078251
0.000774924
0.000851754
0.000851386
0.000851043
0.000850633
0.000850247
0.000849368
0.000848404
0.00084678
0.000844955
0.000842529
0.000839922
0.000836797
0.000833793
0.000830147
0.00082697
0.00082291
0.000819917
0.000815276
0.000851784
0.000851358
0.000851012
0.000850613
0.000850329
0.000849905
0.000849525
0.000848928
0.000848303
0.000847393
0.000846465
0.000845176
0.000843989
0.000842349
0.000840994
0.000839028
0.000837637
0.000835357
0.000851788
0.000851359
0.000850995
0.000850605
0.000850292
0.000849938
0.000849646
0.00084928
0.000848955
0.000848504
0.000848098
0.000847507
0.000846997
0.000846243
0.00084564
0.000844719
0.000844056
0.000842974
0.000851786
0.000851363
0.000850985
0.000850604
0.000850269
0.000849926
0.00084963
0.000849313
0.000849042
0.000848728
0.000848462
0.000848126
0.000847843
0.000847465
0.000847156
0.000846725
0.000846386
0.000845901
0.000851783
0.000851364
0.000850978
0.000850602
0.000850256
0.000849916
0.000849607
0.0008493
0.000849022
0.00084874
0.000848488
0.000848224
0.000847988
0.000847734
0.000847508
0.000847257
0.000847033
0.000846783
0.000851781
0.000851364
0.000850973
0.000850598
0.000850246
0.000849908
0.000849591
0.000849286
0.000849
0.000848723
0.000848463
0.000848211
0.000847975
0.000847744
0.000847528
0.000847316
0.000847115
0.000846919
0.00085178
0.000851363
0.000850969
0.000850594
0.000850239
0.000849901
0.00084958
0.000849275
0.000848984
0.000848707
0.000848443
0.000848191
0.000847951
0.000847721
0.000847502
0.000847293
0.000847093
0.000846901
0.000851779
0.000851362
0.000850967
0.000850591
0.000850234
0.000849895
0.000849572
0.000849265
0.000848973
0.000848694
0.000848428
0.000848175
0.000847933
0.000847701
0.00084748
0.000847269
0.000847067
0.000846874
0.000851779
0.000851362
0.000850965
0.000850588
0.000850231
0.00084989
0.000849567
0.000849259
0.000848965
0.000848685
0.000848418
0.000848163
0.00084792
0.000847687
0.000847465
0.000847252
0.000847049
0.000846854
0.000851779
0.000851362
0.000850965
0.000850588
0.00085023
0.000849889
0.000849565
0.000849256
0.000848962
0.000848681
0.000848414
0.000848158
0.000847914
0.00084768
0.000847457
0.000847243
0.000847039
0.000846844
0.000851779
0.000851362
0.000850966
0.000850589
0.000850231
0.000849891
0.000849567
0.000849259
0.000848965
0.000848685
0.000848417
0.000848162
0.000847917
0.000847684
0.00084746
0.000847246
0.000847041
0.000846845
0.000851779
0.000851363
0.000850967
0.000850592
0.000850235
0.000849897
0.000849573
0.000849267
0.000848972
0.000848694
0.000848424
0.000848169
0.00084792
0.000847683
0.000847451
0.000847231
0.000847013
0.000846806
0.000851778
0.000851366
0.000850968
0.000850599
0.00085024
0.000849907
0.00084958
0.000849274
0.000848964
0.000848671
0.000848365
0.000848072
0.000847756
0.000847456
0.000847123
0.000846811
0.000846457
0.000846136
0.000851773
0.000851376
0.000850971
0.000850615
0.000850241
0.000849889
0.000849478
0.000849054
0.000848529
0.000847978
0.000847301
0.000846605
0.000845767
0.000844939
0.000843955
0.000843029
0.000841918
0.00084094
0.000851768
0.000851415
0.000850964
0.000850548
0.000849861
0.000848966
0.00084761
0.000845976
0.000843905
0.000841636
0.000838955
0.000836214
0.000833117
0.000830114
0.000826763
0.00082368
0.000820184
0.000817178
0.000851859
0.00085138
0.000850195
0.000848243
0.000844469
0.000839354
0.000832765
0.000825658
0.000817962
0.000810011
0.000801618
0.000793628
0.000785332
0.000777707
0.000769744
0.000762701
0.000755124
0.000748795
0.000852108
0.000847667
0.000839902
0.000827146
0.000808707
0.000789646
0.000769975
0.000751413
0.000733305
0.000716895
0.000700934
0.000686781
0.00067283
0.000660671
0.000648379
0.000637942
0.000626954
0.000618021
0.000843241
0.000822506
0.000775185
0.000726459
0.000684894
0.000649852
0.000618461
0.000592019
0.000568382
0.000548312
0.000529689
0.000513991
0.000498752
0.000486017
0.000473203
0.000462709
0.000451624
0.000442806
0.000795685
0.000668241
0.000570627
0.000509905
0.000465605
0.000431183
0.000404146
0.000382481
0.0003642
0.00034907
0.000335942
0.000325062
0.000314508
0.000306237
0.000297961
0.000291369
0.000284283
0.000278933
0.000501314
0.000348356
0.000292674
0.00025918
0.000236322
0.000221177
0.000211621
0.000203855
0.000198564
0.000195076
0.000192221
0.000190368
0.000188583
0.000187438
0.000186166
0.000185472
0.000184555
0.000184142
7.27384e-05
7.02255e-05
6.79541e-05
6.56137e-05
6.33828e-05
6.12762e-05
5.94944e-05
5.79551e-05
5.67109e-05
5.57031e-05
5.49776e-05
5.44178e-05
5.41096e-05
5.38809e-05
5.38975e-05
5.39325e-05
5.40912e-05
5.43238e-05
4.89927e-07
1.08451e-05
1.92964e-05
2.72739e-05
3.56974e-05
4.46611e-05
5.42343e-05
6.43749e-05
7.49108e-05
8.56433e-05
9.6355e-05
0.00010688
0.000117063
0.000126798
0.000135974
0.00014452
0.000152358
0.00015947
0.000165878
0.000171726
0.000177277
0.000182493
0.000187231
0.000196497
0.000207051
0.000219405
0.000231027
0.000238614
0.000236465
0.000231177
0.000219825
0.000210212
0.000202244
0.000182557
3.83036e-05
4.54764e-05
4.76905e-05
4.84566e-05
4.95951e-05
5.0758e-05
5.18654e-05
5.30109e-05
5.41291e-05
5.52588e-05
5.63787e-05
5.74988e-05
5.86148e-05
5.97279e-05
6.08386e-05
6.19458e-05
6.3051e-05
6.41529e-05
6.52529e-05
6.63497e-05
6.74444e-05
6.85359e-05
6.96251e-05
7.0711e-05
7.17941e-05
7.28735e-05
7.39497e-05
7.50218e-05
7.609e-05
7.71534e-05
7.82123e-05
7.92655e-05
8.03134e-05
8.13549e-05
8.239e-05
8.34179e-05
8.44384e-05
8.54506e-05
8.64545e-05
8.74489e-05
8.84338e-05
8.94083e-05
9.03719e-05
9.13241e-05
9.22644e-05
9.31919e-05
9.41061e-05
9.50064e-05
9.58919e-05
9.6762e-05
9.76158e-05
9.84525e-05
9.9271e-05
0.00010007
0.000100849
0.000101606
0.00010234
0.000103049
0.000103733
0.000104392
0.000105031
0.000105653
0.000106251
0.000106825
0.000107376
0.000107904
0.000108406
0.000108883
0.000109335
0.00010976
0.000110158
0.000110529
0.000110871
0.000111185
0.00011147
0.000111725
0.000111949
0.000112143
0.000112306
0.000112437
0.000112536
0.000112602
0.000112636
0.000112638
0.000112606
0.000112545
0.00011244
0.000112306
0.00011214
0.000111927
0.000111687
0.000111429
0.000111142
0.000110809
0.000110448
0.000110054
0.000109629
0.000109175
0.00010869
0.000108177
0.000107635
0.000107067
0.000106471
0.000105853
0.000105214
0.000104556
0.00010388
0.000103187
0.000102481
0.000101762
0.000101035
0.000100298
9.95574e-05
9.88115e-05
9.80656e-05
9.73196e-05
9.65782e-05
9.584e-05
9.51093e-05
9.43859e-05
9.36753e-05
9.29757e-05
9.22931e-05
9.16263e-05
9.09797e-05
9.03515e-05
8.97479e-05
8.91669e-05
8.86123e-05
8.80887e-05
8.76501e-05
8.77482e-05
8.76094e-05
8.73468e-05
8.71352e-05
8.69569e-05
8.68186e-05
8.66979e-05
8.6601e-05
8.65326e-05
8.65084e-05
8.65054e-05
8.64234e-05
8.63156e-05
8.61042e-05
8.48425e-05
2.10384e-06
3.90601e-05
8.22718e-05
0.000112029
0.000131959
0.0001472
0.000160481
0.00017315
0.000185723
0.000198293
0.00021075
0.000222922
0.000234628
0.00024571
0.000256026
0.000265463
0.000273942
0.000281438
0.000288013
0.000293862
0.000299358
0.000304756
0.000309833
0.000315068
0.000320389
0.000325303
0.000328762
0.000327465
0.000321715
0.000311993
0.00029767
0.000281925
0.000278857
0.000255232
0.000243517
0.000261762
0.000272726
0.000278866
0.000285874
0.000293064
0.00030074
0.000308431
0.000316306
0.000324262
0.000332321
0.000340459
0.000348675
0.000356962
0.000365321
0.00037375
0.000382253
0.000390827
0.000399479
0.000408206
0.000417014
0.000425902
0.000434876
0.000443932
0.000453078
0.00046231
0.000471633
0.000481044
0.000490546
0.000500136
0.000509818
0.000519586
0.000529444
0.000539386
0.000549413
0.00055952
0.000569708
0.00057997
0.000590308
0.000600713
0.000611187
0.000621721
0.000632315
0.00064296
0.000653658
0.000664399
0.000675185
0.000686007
0.000696864
0.000707751
0.000718666
0.0007296
0.000740552
0.00075151
0.000762462
0.000773387
0.000784249
0.00079498
0.000805464
0.000815519
0.000824839
0.00083397
0.000842991
0.000851898
0.000860682
0.000869336
0.000877849
0.000886212
0.000894413
0.000902443
0.000910291
0.000917946
0.000925397
0.000932632
0.00093964
0.00094641
0.000952929
0.000959187
0.000965172
0.000970873
0.000976277
0.000981377
0.000986159
0.000990618
0.000994744
0.000998541
0.00100204
0.0010053
0.00100815
0.00101037
0.00101209
0.00101384
0.00101533
0.0010163
0.0010169
0.00101714
0.00101701
0.00101654
0.00101571
0.00101455
0.00101306
0.00101125
0.00100915
0.00100677
0.0010041
0.00100118
0.000998014
0.000994626
0.000991041
0.000987278
0.000983363
0.000979315
0.00097516
0.000970918
0.00096662
0.000962283
0.000957936
0.000953589
0.000949274
0.000945007
0.000940822
0.00093673
0.000932765
0.000928939
0.000925281
0.000921796
0.000918511
0.000915421
0.000912544
0.000909871
0.000907394
0.000904972
0.000900429
0.00089598
0.000891691
0.000887481
0.000883478
0.000879377
0.000875156
0.000870835
0.000866513
0.000862008
0.00085693
0.000850772
0.000841981
0.000817475
4.18239e-06
6.11138e-05
0.000126512
0.00017641
0.00021285
0.000239754
0.000260669
0.000278111
0.000293646
0.000308127
0.000321936
0.00033518
0.000347827
0.000359782
0.000370938
0.000381198
0.000390496
0.000398814
0.000406203
0.000412783
0.000418721
0.000424459
0.000430973
0.000438626
0.000447207
0.000456194
0.000464484
0.000471258
0.000476282
0.000479914
0.000483269
0.000487629
0.000494261
0.000499546
0.000511211
0.000528945
0.000545023
0.000560355
0.000575889
0.00059151
0.000607368
0.000623365
0.000639527
0.000655826
0.000672263
0.000688831
0.000705529
0.000722355
0.000739312
0.000756401
0.000773627
0.000790993
0.000808502
0.000826156
0.00084396
0.000861916
0.000880025
0.00089829
0.000916711
0.000935289
0.000954023
0.000972913
0.000991957
0.00101115
0.0010305
0.00104999
0.00106962
0.00108939
0.0011093
0.00112932
0.00114947
0.00116973
0.0011901
0.00121056
0.00123111
0.00125174
0.00127244
0.00129321
0.00131402
0.00133488
0.00135577
0.00137668
0.00139761
0.00141853
0.00143943
0.00146031
0.00148113
0.00150187
0.00152252
0.00154301
0.0015633
0.0015833
0.00160294
0.00162213
0.00164085
0.00165933
0.00167758
0.00169559
0.00171334
0.00173081
0.00174799
0.00176484
0.00178135
0.0017975
0.00181327
0.00182864
0.00184358
0.00185808
0.0018721
0.00188563
0.00189865
0.00191113
0.00192304
0.00193438
0.00194512
0.00195523
0.00196471
0.00197353
0.00198168
0.00198917
0.001996
0.00200216
0.00200781
0.00201244
0.00201584
0.00201895
0.00202161
0.00202337
0.00202436
0.00202461
0.00202412
0.00202292
0.00202101
0.00201842
0.00201516
0.00201127
0.00200676
0.00200166
0.001996
0.00198981
0.00198313
0.001976
0.00196846
0.00196057
0.00195236
0.00194387
0.00193516
0.00192627
0.00191725
0.00190814
0.00189899
0.00188985
0.00188075
0.00187174
0.00186288
0.0018542
0.00184575
0.00183756
0.00182968
0.00182212
0.00181492
0.00180808
0.00180161
0.0017955
0.00178966
0.00178372
0.0017763
0.00176886
0.00176133
0.00175391
0.00174707
0.00173991
0.00173227
0.00172452
0.00171704
0.00170911
0.00170013
0.00168912
0.0016723
0.00163234
6.362e-06
7.77841e-05
0.000159922
0.000224625
0.000273207
0.000309748
0.000338011
0.000360852
0.000380267
0.000397541
0.00041343
0.00042833
0.000442416
0.00045574
0.000468302
0.000480092
0.000491122
0.000501457
0.000511239
0.000520706
0.000530212
0.000540223
0.000551242
0.000563567
0.000577209
0.000591897
0.000607085
0.000622264
0.000637211
0.000652094
0.000667394
0.000683545
0.000700291
0.000718975
0.000739888
0.000762337
0.000784487
0.00080653
0.000828782
0.000851239
0.000873875
0.000896674
0.00091964
0.000942772
0.000966068
0.00098953
0.00101316
0.00103696
0.00106093
0.00108508
0.00110942
0.00113394
0.00115866
0.00118358
0.00120869
0.00123402
0.00125954
0.00128527
0.00131121
0.00133735
0.00136369
0.00139023
0.00141697
0.0014439
0.00147102
0.00149831
0.00152578
0.00155341
0.0015812
0.00160913
0.00163721
0.0016654
0.00169372
0.00172213
0.00175064
0.00177922
0.00180786
0.00183655
0.00186528
0.00189402
0.00192277
0.0019515
0.0019802
0.00200885
0.00203742
0.00206589
0.00209424
0.00212243
0.00215043
0.00217819
0.00220566
0.0022328
0.00225953
0.00228582
0.00231173
0.00233732
0.00236259
0.00238752
0.00241208
0.00243624
0.00246
0.0024833
0.00250614
0.00252848
0.00255029
0.00257155
0.00259223
0.0026123
0.00263172
0.00265048
0.00266853
0.00268586
0.00270242
0.0027182
0.00273317
0.00274729
0.00276055
0.00277292
0.00278438
0.00279493
0.00280455
0.00281321
0.00282117
0.00282806
0.00283325
0.00283766
0.00284149
0.00284416
0.00284576
0.00284633
0.00284588
0.00284442
0.00284198
0.00283858
0.00283424
0.00282899
0.00282287
0.00281592
0.00280816
0.00279966
0.00279045
0.0027806
0.00277016
0.00275919
0.00274775
0.00273591
0.00272372
0.00271125
0.00269856
0.00268572
0.0026728
0.00265985
0.00264694
0.00263414
0.00262151
0.0026091
0.00259699
0.00258522
0.00257384
0.0025629
0.00255242
0.00254244
0.00253294
0.00252393
0.0025153
0.00250676
0.00249758
0.00248836
0.0024791
0.00246997
0.00246134
0.00245269
0.00244371
0.00243472
0.00242566
0.00241607
0.00240543
0.00239249
0.00237244
0.00233026
8.46564e-06
9.16615e-05
0.000187605
0.000264521
0.000323697
0.000368828
0.000403886
0.000431987
0.000455427
0.000475808
0.000494188
0.000511227
0.000527316
0.000542682
0.00055746
0.000571748
0.000585647
0.000599286
0.000612847
0.000626576
0.000640783
0.000655819
0.000672013
0.000689576
0.000708531
0.000728667
0.000749677
0.000771275
0.000793297
0.000815773
0.00083891
0.000862964
0.000887499
0.000912801
0.000939008
0.000965788
0.000992953
0.00102036
0.00104791
0.00107557
0.00110341
0.00113143
0.00115963
0.00118803
0.00121662
0.00124541
0.0012744
0.0013036
0.00133299
0.00136259
0.0013924
0.00142244
0.00145271
0.00148321
0.00151394
0.00154492
0.00157613
0.00160757
0.00163924
0.00167115
0.00170328
0.00173563
0.0017682
0.00180097
0.00183394
0.00186711
0.00190045
0.00193396
0.00196763
0.00200144
0.00203538
0.00206944
0.0021036
0.00213785
0.00217217
0.00220655
0.00224096
0.00227538
0.00230981
0.00234422
0.00237859
0.00241289
0.00244712
0.00248124
0.00251522
0.00254905
0.00258269
0.00261612
0.00264929
0.00268217
0.00271474
0.00274695
0.0027788
0.00281026
0.00284134
0.00287204
0.00290237
0.00293228
0.00296175
0.00299076
0.00301928
0.00304728
0.00307473
0.00310159
0.00312784
0.00315345
0.00317839
0.00320261
0.00322609
0.0032488
0.0032707
0.00329175
0.00331192
0.00333119
0.00334951
0.00336685
0.0033832
0.0033985
0.00341275
0.00342593
0.00343799
0.00344893
0.00345897
0.00346795
0.00347509
0.00348096
0.00348612
0.00348996
0.00349254
0.00349386
0.00349395
0.00349282
0.0034905
0.003487
0.00348236
0.00347661
0.00346978
0.00346192
0.00345307
0.00344329
0.00343263
0.00342116
0.00340894
0.00339605
0.00338254
0.0033685
0.003354
0.00333912
0.00332392
0.0033085
0.00329293
0.00327728
0.00326165
0.0032461
0.00323072
0.00321558
0.00320075
0.00318631
0.00317232
0.00315882
0.00314587
0.0031335
0.00312173
0.00311055
0.0030999
0.00308959
0.00307922
0.00306899
0.00305889
0.00304895
0.00303937
0.00302991
0.00302036
0.0030108
0.00300114
0.00299105
0.00298005
0.00296692
0.00294752
0.00290883
1.04293e-05
0.000103244
0.000210714
0.00029815
0.000366776
0.000419831
0.000461391
0.000494744
0.000522405
0.000546217
0.000567484
0.000587093
0.000605637
0.000623505
0.000640965
0.000658213
0.000675416
0.000692738
0.000710358
0.000728479
0.000747321
0.000767108
0.00078803
0.000810201
0.000833621
0.000858175
0.000883674
0.000909924
0.000936785
0.000964209
0.000992226
0.00102086
0.00105004
0.00107978
0.00111007
0.00114079
0.00117185
0.00120317
0.0012347
0.00126641
0.00129832
0.00133043
0.00136273
0.00139524
0.00142796
0.00146088
0.00149403
0.0015274
0.001561
0.00159484
0.00162892
0.00166324
0.00169779
0.00173258
0.00176761
0.00180288
0.00183838
0.00187411
0.00191007
0.00194625
0.00198265
0.00201927
0.00205608
0.0020931
0.00213029
0.00216766
0.0022052
0.00224289
0.00228071
0.00231865
0.00235671
0.00239486
0.00243308
0.00247137
0.00250969
0.00254805
0.00258641
0.00262475
0.00266307
0.00270133
0.00273952
0.00277761
0.00281559
0.00285342
0.00289109
0.00292857
0.00296583
0.00300285
0.0030396
0.00307605
0.00311217
0.00314796
0.00318339
0.00321844
0.00325311
0.00328737
0.00332122
0.00335462
0.00338755
0.00341999
0.00345189
0.00348325
0.00351401
0.00354416
0.00357366
0.00360248
0.00363058
0.00365793
0.0036845
0.00371025
0.00373514
0.00375914
0.0037822
0.0038043
0.00382539
0.00384544
0.00386442
0.00388229
0.00389901
0.00391457
0.00392893
0.00394205
0.00395411
0.00396515
0.00397438
0.00398195
0.00398867
0.00399398
0.00399788
0.00400038
0.00400149
0.00400121
0.00399958
0.00399661
0.00399234
0.00398678
0.00398
0.00397201
0.00396288
0.00395266
0.0039414
0.00392919
0.00391607
0.00390214
0.00388746
0.00387212
0.00385619
0.00383977
0.00382293
0.00380577
0.00378837
0.00377083
0.00375324
0.00373569
0.00371827
0.00370107
0.00368417
0.00366766
0.00365161
0.0036361
0.00362117
0.00360689
0.00359327
0.00358034
0.00356807
0.00355634
0.00354495
0.00353392
0.00352322
0.00351289
0.00350294
0.00349328
0.00348376
0.00347435
0.00346497
0.00345536
0.00344511
0.00343314
0.00341607
0.00338428
1.2204e-05
0.000112785
0.000229843
0.000326431
0.000403527
0.000464007
0.000511864
0.000550497
0.000582569
0.000610097
0.000634574
0.000657072
0.000678348
0.000698934
0.000719207
0.000739442
0.000759855
0.000780626
0.00080192
0.00082389
0.000846682
0.000870428
0.000895223
0.000921116
0.000948092
0.000976074
0.00100494
0.00103457
0.00106484
0.0010957
0.0011271
0.00115903
0.00119146
0.00122436
0.00125769
0.00129139
0.00132541
0.00135969
0.00139421
0.00142895
0.00146388
0.00149903
0.00153437
0.00156992
0.00160568
0.00164166
0.00167784
0.00171425
0.00175089
0.00178776
0.00182485
0.00186218
0.00189973
0.00193752
0.00197553
0.00201377
0.00205224
0.00209092
0.00212983
0.00216894
0.00220826
0.00224777
0.00228748
0.00232736
0.00236741
0.00240762
0.00244798
0.00248846
0.00252907
0.00256978
0.00261057
0.00265145
0.00269238
0.00273335
0.00277434
0.00281534
0.00285632
0.00289727
0.00293817
0.002979
0.00301973
0.00306035
0.00310084
0.00314116
0.00318131
0.00322125
0.00326097
0.00330044
0.00333963
0.00337854
0.00341712
0.00345538
0.00349328
0.00353081
0.00356796
0.00360471
0.00364102
0.0036769
0.00371229
0.00374719
0.00378156
0.00381538
0.00384861
0.00388122
0.00391319
0.00394448
0.00397505
0.00400488
0.00403392
0.00406215
0.00408951
0.00411598
0.00414151
0.00416606
0.0041896
0.00421208
0.00423346
0.00425371
0.00427279
0.00429066
0.00430728
0.00432262
0.00433679
0.00434991
0.0043613
0.00437098
0.00437946
0.00438654
0.00439211
0.00439616
0.00439868
0.0043997
0.00439923
0.00439729
0.0043939
0.0043891
0.00438292
0.0043754
0.00436659
0.00435653
0.0043453
0.00433296
0.00431958
0.00430522
0.00428999
0.00427395
0.00425719
0.00423981
0.00422189
0.00420353
0.00418483
0.00416589
0.00414681
0.00412769
0.00410863
0.00408974
0.00407111
0.00405284
0.00403502
0.00401773
0.00400105
0.00398504
0.00396975
0.00395522
0.00394145
0.0039284
0.00391596
0.0039041
0.0038928
0.00388206
0.00387186
0.00386214
0.00385282
0.00384383
0.00383509
0.00382644
0.00381753
0.00380746
0.00379354
0.00376893
1.37547e-05
0.000120463
0.000245379
0.000350123
0.000434616
0.00050199
0.000555906
0.00059979
0.000636382
0.000667815
0.000695715
0.000721291
0.00074543
0.000768775
0.000791792
0.000814821
0.000838112
0.000861859
0.000886214
0.000911301
0.000937219
0.000964048
0.00099183
0.00102058
0.00105026
0.00108082
0.00111219
0.00114426
0.00117696
0.00121023
0.00124402
0.00127829
0.00131301
0.00134815
0.00138366
0.00141952
0.00145567
0.00149207
0.00152871
0.00156556
0.0016026
0.00163985
0.00167729
0.00171493
0.00175276
0.00179079
0.00182902
0.00186746
0.00190611
0.00194497
0.00198405
0.00202333
0.00206283
0.00210254
0.00214246
0.00218259
0.00222293
0.00226347
0.0023042
0.00234514
0.00238625
0.00242755
0.00246902
0.00251065
0.00255243
0.00259435
0.00263641
0.00267858
0.00272086
0.00276323
0.00280567
0.00284818
0.00289074
0.00293333
0.00297593
0.00301853
0.00306111
0.00310365
0.00314613
0.00318854
0.00323086
0.00327306
0.00331513
0.00335704
0.00339877
0.00344032
0.00348164
0.00352273
0.00356356
0.00360412
0.00364438
0.00368433
0.00372395
0.00376322
0.00380212
0.00384064
0.00387874
0.00391642
0.00395365
0.0039904
0.00402664
0.00406236
0.00409751
0.00413208
0.00416603
0.00419934
0.00423196
0.00426387
0.00429503
0.0043254
0.00435494
0.00438362
0.00441138
0.0044382
0.00446403
0.00448882
0.00451252
0.00453511
0.00455653
0.00457673
0.00459569
0.00461334
0.00462978
0.00464509
0.00465875
0.00467077
0.00468134
0.00469048
0.00469804
0.00470398
0.00470827
0.00471095
0.00471203
0.00471152
0.00470945
0.00470583
0.0047007
0.00469409
0.00468604
0.00467661
0.00466585
0.00465383
0.00464061
0.00462627
0.00461089
0.00459456
0.00457736
0.00455938
0.00454073
0.0045215
0.00450179
0.00448172
0.0044614
0.00444093
0.00442042
0.0044
0.00437977
0.00435984
0.00434031
0.00432129
0.00430287
0.00428513
0.00426814
0.00425197
0.00423665
0.00422218
0.00420853
0.00419569
0.00418363
0.00417235
0.00416184
0.00415205
0.00414294
0.00413445
0.00412654
0.00411908
0.00411185
0.00410408
0.00409365
0.00407578
1.50603e-05
0.000126442
0.000257661
0.000369378
0.000460443
0.000534149
0.000593812
0.000642816
0.000683923
0.000719327
0.000750736
0.000779456
0.000806468
0.000832501
0.000858093
0.000883636
0.000909412
0.000935622
0.000962415
0.000989896
0.00101814
0.00104726
0.00107724
0.00110807
0.00113971
0.00117212
0.00120524
0.001239
0.00127334
0.00130821
0.00134355
0.00137934
0.00141553
0.0014521
0.00148901
0.00152627
0.00156378
0.00160152
0.00163946
0.00167759
0.00171591
0.00175439
0.00179304
0.00183187
0.00187087
0.00191004
0.0019494
0.00198893
0.00202865
0.00206856
0.00210866
0.00214894
0.00218942
0.00223008
0.00227094
0.00231199
0.00235322
0.00239464
0.00243624
0.00247802
0.00251997
0.00256209
0.00260437
0.00264681
0.00268939
0.00273211
0.00277495
0.00281791
0.00286098
0.00290414
0.00294738
0.00299069
0.00303405
0.00307745
0.00312088
0.00316432
0.00320775
0.00325115
0.00329452
0.00333782
0.00338105
0.00342419
0.00346721
0.00351009
0.00355283
0.0035954
0.00363777
0.00367994
0.00372189
0.00376358
0.00380502
0.00384617
0.00388703
0.00392757
0.00396777
0.00400762
0.00404709
0.00408617
0.00412484
0.00416306
0.00420082
0.0042381
0.00427486
0.00431108
0.00434674
0.00438179
0.00441622
0.00444999
0.00448306
0.0045154
0.00454696
0.00457772
0.00460762
0.00463662
0.00466467
0.00469174
0.00471777
0.00474271
0.00476652
0.00478914
0.00481053
0.00483063
0.00484951
0.00486716
0.00488325
0.0048978
0.00491078
0.00492227
0.00493213
0.00494024
0.00494663
0.00495129
0.00495426
0.00495552
0.00495511
0.00495303
0.0049493
0.00494396
0.00493703
0.00492858
0.00491864
0.00490727
0.00489455
0.00488054
0.00486532
0.00484898
0.00483159
0.00481327
0.0047941
0.0047742
0.00475366
0.0047326
0.00471115
0.00468942
0.00466753
0.0046456
0.00462377
0.00460215
0.00458086
0.00456003
0.00453977
0.00452018
0.00450136
0.00448339
0.00446635
0.00445028
0.0044352
0.00442113
0.00440809
0.00439606
0.00438507
0.00437508
0.00436609
0.00435809
0.00435103
0.00434488
0.00433946
0.00433417
0.00432733
0.00431543
1.61114e-05
0.000130875
0.000266965
0.000384495
0.000481318
0.00056075
0.000625763
0.000679647
0.000725137
0.000764445
0.000799323
0.000831135
0.000860925
0.000889481
0.000917394
0.000945159
0.000973051
0.00100127
0.00102995
0.00105919
0.00108902
0.00111962
0.00115098
0.0011831
0.00121594
0.00124946
0.00128361
0.00131835
0.00135363
0.00138938
0.00142558
0.00146219
0.00149916
0.00153648
0.0015741
0.00161202
0.00165008
0.00168838
0.00172687
0.00176549
0.00180424
0.00184312
0.00188213
0.00192128
0.00196057
0.002
0.00203957
0.00207931
0.0021192
0.00215924
0.00219946
0.00223984
0.00228039
0.00232111
0.00236201
0.00240309
0.00244434
0.00248577
0.00252738
0.00256916
0.00261112
0.00265324
0.00269554
0.002738
0.00278061
0.00282338
0.00286629
0.00290933
0.00295251
0.0029958
0.0030392
0.00308269
0.00312627
0.00316992
0.00321363
0.00325738
0.00330115
0.00334494
0.00338873
0.00343249
0.00347621
0.00351988
0.00356347
0.00360696
0.00365035
0.0036936
0.00373671
0.00377964
0.00382239
0.00386494
0.00390726
0.00394934
0.00399117
0.00403271
0.00407397
0.00411491
0.00415551
0.00419577
0.00423566
0.00427515
0.00431423
0.00435288
0.00439107
0.00442878
0.00446597
0.00450264
0.00453874
0.00457424
0.00460912
0.00464333
0.00467684
0.00470961
0.00474159
0.00477275
0.00480303
0.00483238
0.00486076
0.00488811
0.00491438
0.00493951
0.00496345
0.00498615
0.00500761
0.00502778
0.00504649
0.00506373
0.0050794
0.0050935
0.00510596
0.00511653
0.00512528
0.00513222
0.00513736
0.00514071
0.00514226
0.00514203
0.00514002
0.00513626
0.00513077
0.00512359
0.00511476
0.00510433
0.00509237
0.00507895
0.00506413
0.005048
0.00503064
0.00501216
0.00499264
0.0049722
0.00495094
0.00492899
0.00490647
0.00488351
0.00486024
0.00483679
0.00481331
0.00478993
0.00476679
0.00474402
0.00472177
0.00470016
0.00467931
0.00465935
0.00464037
0.00462246
0.00460571
0.00459015
0.00457585
0.00456283
0.00455114
0.00454077
0.00453176
0.00452413
0.00451789
0.00451303
0.00450946
0.00450668
0.00450339
0.00449715
1.691e-05
0.000133922
0.000273572
0.000395793
0.000497543
0.000582036
0.000651911
0.000710322
0.00075994
0.000802957
0.000841135
0.000875875
0.000908274
0.000939108
0.000968929
0.000998303
0.00102761
0.00105712
0.001087
0.00111738
0.00114837
0.00118004
0.00121234
0.00124526
0.00127877
0.00131284
0.00134742
0.00138249
0.00141799
0.0014539
0.00149016
0.00152676
0.00156364
0.0016008
0.00163821
0.00167591
0.00171387
0.00175205
0.00179031
0.00182863
0.001867
0.00190543
0.00194393
0.00198252
0.0020212
0.00206
0.0020989
0.00213794
0.0021771
0.00221641
0.00225586
0.00229547
0.00233524
0.00237517
0.00241529
0.00245558
0.00249606
0.00253673
0.00257759
0.00261865
0.00265991
0.00270137
0.00274303
0.00278489
0.00282694
0.00286919
0.00291163
0.00295425
0.00299705
0.00304002
0.00308316
0.00312644
0.00316986
0.00321341
0.00325707
0.00330083
0.00334468
0.00338859
0.00343256
0.00347655
0.00352057
0.00356458
0.00360856
0.0036525
0.00369638
0.00374018
0.00378388
0.00382746
0.00387089
0.00391417
0.00395726
0.00400016
0.00404285
0.0040853
0.0041275
0.00416942
0.00421106
0.0042524
0.00429341
0.00433408
0.00437439
0.00441432
0.00445384
0.00449295
0.00453161
0.0045698
0.00460749
0.00464466
0.00468128
0.00471732
0.00475273
0.00478748
0.00482153
0.00485483
0.00488734
0.004919
0.00494976
0.00497956
0.00500836
0.00503608
0.00506267
0.00508808
0.00511226
0.00513515
0.00515664
0.00517676
0.00519533
0.00521228
0.00522763
0.00524091
0.00525227
0.00526175
0.00526934
0.00527505
0.00527886
0.00528076
0.00528076
0.00527886
0.00527508
0.00526945
0.005262
0.00525278
0.00524184
0.00522923
0.00521504
0.00519934
0.0051822
0.00516373
0.00514401
0.00512317
0.00510131
0.00507855
0.00505503
0.00503088
0.00500624
0.00498125
0.00495608
0.00493087
0.00490578
0.00488096
0.00485658
0.00483279
0.00480973
0.00478757
0.00476644
0.00474647
0.00472779
0.00471049
0.00469467
0.00468041
0.00466777
0.00465681
0.00464759
0.00464018
0.00463463
0.00463098
0.00462918
0.00462886
0.00462899
0.00462796
1.74688e-05
0.000135765
0.000277769
0.000403593
0.000509417
0.000598242
0.000672399
0.000734868
0.00078823
0.000834639
0.00087576
0.000912867
0.000947273
0.000979878
0.00101141
0.00104245
0.00107321
0.00110394
0.00113484
0.00116604
0.00119762
0.0012296
0.00126203
0.00129493
0.00132827
0.00136205
0.00139624
0.0014308
0.0014657
0.0015009
0.00153639
0.00157212
0.00160808
0.00164424
0.00168054
0.00171704
0.00175378
0.00179079
0.00182793
0.00186508
0.00190222
0.00193932
0.0019764
0.00201351
0.00205066
0.00208789
0.00212522
0.00216265
0.00220021
0.0022379
0.00227574
0.00231375
0.00235193
0.00239031
0.00242889
0.00246768
0.00250671
0.00254597
0.00258547
0.00262523
0.00266526
0.00270554
0.0027461
0.00278693