/*--------------------------------*- C++ -*----------------------------------*\
  =========                 |
  \\      /  F ield         | OpenFOAM: The Open Source CFD Toolbox
   \\    /   O peration     | Website:  https://openfoam.org
    \\  /    A nd           | Version:  8
     \\/     M anipulation  |
\*---------------------------------------------------------------------------*/
FoamFile
{
    version     2.0;
    format      ascii;
    class       volScalarField;
    location    "200";
    object      p;
}
// * * * * * * * * * * * * * * * * * * * * * * * * * * * * * * * * * * * * * //

dimensions      [0 2 -2 0 0 0 0];

internalField   nonuniform List<scalar> 
12225
(
-2.14454
-4.33312
-5.43308
-5.7537
-5.93495
-6.10395
-6.23549
-6.33064
-6.40726
-6.47466
-6.53468
-6.58957
-6.63937
-6.68573
-6.72889
-6.76416
-6.8077
-6.7747
-5.30797
-6.07642
-6.23684
-6.14456
-6.132
-6.19983
-6.27737
-6.34311
-6.40273
-6.46018
-6.51482
-6.56574
-6.61364
-6.65869
-6.70186
-6.73934
-6.78267
-6.80995
-5.70912
-5.69411
-5.82142
-5.89974
-5.99461
-6.11476
-6.22196
-6.3068
-6.37863
-6.44399
-6.50412
-6.55905
-6.61023
-6.65793
-6.70366
-6.74507
-6.79231
-6.83306
-5.58718
-5.53027
-5.77182
-5.9301
-6.0318
-6.13798
-6.23565
-6.31568
-6.38442
-6.44752
-6.5061
-6.56014
-6.61079
-6.65839
-6.70433
-6.74781
-6.79516
-6.84245
-5.57684
-5.60127
-5.82929
-5.9708
-6.05438
-6.1464
-6.2376
-6.3153
-6.38284
-6.44507
-6.5032
-6.5572
-6.60804
-6.65617
-6.70287
-6.74822
-6.79607
-6.84623
-5.63479
-5.68373
-5.85797
-5.98183
-6.0633
-6.15109
-6.23911
-6.3156
-6.38255
-6.44426
-6.50205
-6.556
-6.60693
-6.65544
-6.70262
-6.74898
-6.79695
-6.84727
-5.69512
-5.73936
-5.8745
-5.99078
-6.07449
-6.15858
-6.24247
-6.31708
-6.38315
-6.44415
-6.50142
-6.55517
-6.60605
-6.65473
-6.70213
-6.7489
-6.79658
-6.84583
-5.74865
-5.78629
-5.89621
-6.00445
-6.0874
-6.16696
-6.24634
-6.31879
-6.38381
-6.44401
-6.50068
-6.55413
-6.60488
-6.65357
-6.70097
-6.74771
-6.79473
-6.8424
-5.79837
-5.83149
-5.92237
-6.02028
-6.10031
-6.17563
-6.25075
-6.32083
-6.38461
-6.44388
-6.49984
-6.55285
-6.60332
-6.65183
-6.699
-6.74532
-6.7914
-6.83729
-5.8454
-5.87464
-5.95012
-6.03728
-6.11343
-6.18492
-6.25599
-6.32344
-6.38571
-6.44389
-6.499
-6.55139
-6.60141
-6.64952
-6.6962
-6.74182
-6.78675
-6.83085
-5.88968
-5.91516
-5.97832
-6.05543
-6.12706
-6.19483
-6.26201
-6.32665
-6.38718
-6.44411
-6.4982
-6.54981
-6.59919
-6.64669
-6.69267
-6.73739
-6.78104
-6.82339
-5.92767
-5.95
-6.00416
-6.07293
-6.14
-6.20433
-6.2681
-6.33009
-6.38886
-6.4445
-6.49754
-6.54828
-6.59691
-6.64369
-6.68887
-6.73262
-6.77504
-6.81589
-5.96275
-5.98246
-6.02924
-6.09057
-6.15301
-6.21395
-6.27449
-6.33386
-6.39078
-6.44504
-6.49693
-6.5467
-6.59448
-6.64042
-6.6847
-6.72741
-6.76862
-6.80805
-5.9995
-6.01668
-6.05665
-6.11061
-6.16788
-6.22499
-6.28206
-6.33849
-6.39321
-6.44578
-6.49628
-6.54482
-6.59149
-6.63636
-6.67952
-6.72099
-6.76082
-6.79877
-6.03666
-6.05143
-6.08539
-6.13244
-6.18427
-6.23721
-6.29061
-6.34388
-6.39609
-6.44667
-6.49548
-6.54254
-6.58784
-6.63138
-6.67318
-6.71325
-6.75158
-6.788
-6.07227
-6.08489
-6.11379
-6.15471
-6.20124
-6.2499
-6.2996
-6.34962
-6.39912
-6.44746
-6.49435
-6.53968
-6.58337
-6.62537
-6.66565
-6.70417
-6.74094
-6.77582
-6.10343
-6.11429
-6.13923
-6.17515
-6.217
-6.26169
-6.30791
-6.35483
-6.40161
-6.44762
-6.49246
-6.53592
-6.57786
-6.61819
-6.65684
-6.69378
-6.72897
-6.76237
-6.12577
-6.13542
-6.15766
-6.19011
-6.22855
-6.27017
-6.3136
-6.35795
-6.4024
-6.4463
-6.48922
-6.53088
-6.57111
-6.60979
-6.64686
-6.68225
-6.71597
-6.74798
-6.1324
-6.14156
-6.16277
-6.19391
-6.231
-6.27127
-6.31332
-6.35626
-6.39932
-6.44184
-6.48339
-6.52367
-6.56254
-6.59987
-6.63561
-6.66973
-6.70221
-6.73308
-6.11616
-6.12593
-6.14853
-6.18161
-6.22061
-6.2623
-6.30525
-6.34877
-6.39213
-6.4347
-6.47604
-6.51597
-6.55433
-6.59108
-6.62615
-6.65957
-6.69133
-6.7215
-6.08923
-6.10003
-6.1253
-6.16232
-6.20509
-6.2496
-6.29469
-6.33991
-6.38455
-6.42789
-6.46966
-6.50976
-6.54814
-6.58475
-6.61961
-6.65272
-6.68417
-6.714
-6.05396
-6.06578
-6.09514
-6.13872
-6.187
-6.23499
-6.28279
-6.33051
-6.37706
-6.42165
-6.46417
-6.50473
-6.54334
-6.58002
-6.61481
-6.6478
-6.67905
-6.70867
-6.01338
-6.02528
-6.05974
-6.11301
-6.16856
-6.22051
-6.2714
-6.32184
-6.37035
-6.41622
-6.45964
-6.50083
-6.53982
-6.57668
-6.61152
-6.64448
-6.67564
-6.70517
-5.96965
-5.98063
-6.02241
-6.08683
-6.14901
-6.20569
-6.26131
-6.31517
-6.36543
-6.41225
-6.45636
-6.49804
-6.53731
-6.57426
-6.6091
-6.642
-6.67308
-6.70248
-5.92271
-5.92822
-5.99088
-6.06909
-6.13103
-6.18929
-6.25043
-6.30878
-6.3613
-6.40936
-6.45437
-6.49663
-6.53617
-6.5732
-6.60802
-6.64084
-6.67183
-6.70118
-5.87939
-5.84307
-5.95261
-6.06358
-6.12583
-6.18112
-6.24333
-6.30307
-6.35629
-6.40501
-6.45072
-6.49352
-6.53339
-6.57061
-6.60553
-6.63841
-6.66943
-6.69878
-5.89361
-5.73466
-5.86359
-6.01767
-6.10778
-6.17914
-6.24807
-6.30898
-6.36178
-6.41006
-6.45534
-6.49759
-6.53688
-6.57354
-6.60792
-6.64029
-6.67089
-6.69997
-6.0168
-5.83642
-5.8506
-5.92273
-6.0111
-6.11032
-6.20102
-6.27479
-6.3365
-6.39163
-6.44194
-6.48771
-6.52951
-6.568
-6.60369
-6.63702
-6.66845
-6.6986
-5.72418
-6.31527
-6.4041
-6.27986
-6.22552
-6.25268
-6.29966
-6.3429
-6.38446
-6.42664
-6.46813
-6.50746
-6.54442
-6.57915
-6.61171
-6.64225
-6.671
-6.69972
-2.73485
-4.49816
-5.50285
-5.802
-5.95117
-6.0948
-6.20884
-6.2898
-6.35402
-6.41089
-6.46215
-6.50818
-6.54986
-6.58809
-6.62338
-6.65552
-6.68436
-6.70815
-7.60714
-7.60719
-7.60771
-7.60883
-7.61042
-7.61242
-7.61482
-7.6176
-7.62078
-7.62437
-7.62842
-7.63295
-7.638
-7.64364
-7.64991
-7.65688
-7.66462
-7.67318
-7.68263
-7.69312
-7.70461
-7.71679
-7.72942
-7.7425
-7.75539
-7.76763
-7.78076
-7.79686
-7.81631
-7.83769
-7.85979
-7.88238
-7.9052
-7.92949
-7.95379
-7.9756
-7.99564
-8.01747
-8.04197
-8.06736
-8.0936
-8.12049
-8.14788
-8.17568
-8.20377
-8.23207
-8.26047
-8.28892
-8.31731
-8.34559
-8.37365
-8.40143
-8.42881
-8.45573
-8.48205
-8.50772
-8.53257
-8.55654
-8.57945
-8.60123
-8.62169
-8.64073
-8.65817
-8.67387
-8.68765
-8.69937
-8.70881
-8.71583
-8.7202
-8.72177
-8.72029
-8.7156
-8.70744
-8.69566
-8.67998
-8.66023
-8.63615
-8.60754
-8.57414
-8.53577
-8.49216
-8.44311
-8.38838
-8.32779
-8.26107
-8.18806
-8.10851
-8.02226
-7.92913
-7.82905
-7.72205
-7.60811
-7.48705
-7.35835
-7.22161
-7.07688
-6.92426
-6.76378
-6.59548
-6.41938
-6.23552
-6.04397
-5.84481
-5.63817
-5.42421
-5.20312
-4.9751
-4.7404
-4.4993
-4.25209
-3.99911
-3.74071
-3.47728
-3.2092
-2.93692
-2.66088
-2.38154
-2.09937
-1.81485
-1.52842
-1.24059
-0.951828
-0.662656
-0.373571
-0.08505
0.202474
0.488569
0.772811
1.0548
1.33417
1.61056
1.88363
2.15313
2.41876
2.68034
2.93764
3.19057
3.43902
3.68297
3.92234
4.15712
4.38734
4.61308
4.8345
5.05174
5.265
5.47451
5.68051
5.88328
6.08314
6.28041
6.47546
6.66865
6.8604
7.05112
7.24124
7.43122
7.62152
7.81259
8.00492
8.19895
8.39514
8.59393
8.79571
9.00087
9.20988
9.42291
9.63966
9.85988
10.0837
10.3111
10.5418
10.7756
11.0117
11.2496
11.4886
11.7289
11.9698
12.2241
12.481
-7.60487
-7.60542
-7.60623
-7.60713
-7.60795
-7.60885
-7.61005
-7.61168
-7.61382
-7.61648
-7.61968
-7.62342
-7.62772
-7.63261
-7.6381
-7.64423
-7.65103
-7.6585
-7.66667
-7.67547
-7.68471
-7.69434
-7.7048
-7.71608
-7.72806
-7.74201
-7.75853
-7.77582
-7.79197
-7.80727
-7.82307
-7.83993
-7.85936
-7.88083
-7.90405
-7.93049
-7.96034
-7.99006
-8.01728
-8.04412
-8.07106
-8.09826
-8.12573
-8.15346
-8.18139
-8.20949
-8.23766
-8.26587
-8.29402
-8.32205
-8.34989
-8.37745
-8.40464
-8.43139
-8.45757
-8.48311
-8.50789
-8.5318
-8.5547
-8.5765
-8.59703
-8.61617
-8.63375
-8.64965
-8.66367
-8.67568
-8.68546
-8.69287
-8.6977
-8.69976
-8.69884
-8.69477
-8.6873
-8.67624
-8.66138
-8.64249
-8.61935
-8.59173
-8.55942
-8.52218
-8.4798
-8.43205
-8.37872
-8.3196
-8.25446
-8.18311
-8.10535
-8.02098
-7.92981
-7.83169
-7.72648
-7.61393
-7.49379
-7.36604
-7.23079
-7.08796
-6.93741
-6.77908
-6.61297
-6.43908
-6.25743
-6.0681
-5.87116
-5.66674
-5.45496
-5.23603
-5.01013
-4.7775
-4.53841
-4.29315
-4.04204
-3.78542
-3.52368
-3.25719
-2.98639
-2.71171
-2.43361
-2.15256
-1.86902
-1.58345
-1.29634
-1.00818
-0.719469
-0.430698
-0.142357
0.145121
0.431301
0.715763
0.9981
1.27794
1.55491
1.82869
2.09899
2.36553
2.62808
2.88646
3.14051
3.39015
3.63532
3.87595
4.112
4.3435
4.57051
4.79318
5.01164
5.22609
5.43672
5.6438
5.84757
6.04836
6.24646
6.44226
6.63609
6.82838
7.01951
7.20993
7.40007
7.5904
7.78136
7.97344
8.16708
8.36275
8.56092
8.76196
8.96621
9.17408
9.38569
9.60082
9.81941
10.0416
10.2674
10.4965
10.7287
10.9635
11.2004
11.4389
11.6795
11.9214
12.1789
12.4283
-7.59881
-7.60047
-7.6028
-7.60458
-7.60567
-7.6065
-7.60745
-7.60874
-7.61049
-7.61275
-7.61556
-7.61894
-7.6229
-7.62746
-7.63264
-7.63848
-7.64497
-7.65213
-7.65997
-7.66845
-7.67749
-7.68705
-7.69725
-7.70832
-7.72056
-7.73461
-7.75069
-7.7681
-7.78585
-7.80366
-7.82183
-7.84049
-7.85982
-7.87977
-7.90058
-7.92329
-7.94811
-7.97402
-7.99998
-8.02617
-8.05263
-8.07937
-8.10636
-8.13358
-8.16099
-8.18853
-8.21616
-8.24381
-8.27143
-8.29895
-8.32628
-8.35337
-8.38012
-8.40644
-8.43225
-8.45744
-8.48191
-8.50555
-8.52823
-8.54984
-8.57024
-8.58929
-8.60684
-8.62275
-8.63685
-8.64898
-8.65896
-8.66661
-8.67176
-8.6742
-8.67373
-8.67017
-8.6633
-8.65291
-8.63879
-8.62072
-8.59848
-8.57185
-8.5406
-8.50452
-8.46337
-8.41694
-8.36502
-8.30738
-8.24382
-8.17414
-8.09814
-8.01563
-7.92642
-7.83036
-7.72727
-7.61693
-7.49909
-7.37369
-7.24077
-7.10029
-6.95216
-6.79632
-6.63275
-6.46143
-6.28239
-6.09567
-5.90135
-5.69954
-5.49038
-5.27402
-5.05068
-4.82057
-4.58393
-4.34107
-4.09228
-3.83791
-3.57832
-3.31388
-3.04502
-2.77217
-2.49576
-2.21627
-1.93415
-1.64987
-1.3639
-1.07675
-0.788908
-0.500839
-0.213032
0.0740522
0.35998
0.644343
0.926727
1.20676
1.48406
1.75832
2.0292
2.29645
2.55981
2.8191
3.07414
3.32485
3.57113
3.81291
4.05016
4.28285
4.51109
4.73495
4.9546
5.17017
5.38189
5.58996
5.79466
5.99627
6.1951
6.39148
6.58579
6.77838
6.96969
7.1601
7.35006
7.54001
7.73043
7.92177
8.11449
8.30901
8.50586
8.70546
8.90816
9.11429
9.324
9.53724
9.75401
9.97439
10.1984
10.4259
10.6566
10.8901
11.1261
11.3642
11.6056
11.8485
12.1086
12.3441
-7.58964
-7.59255
-7.59699
-7.6004
-7.60254
-7.60405
-7.60539
-7.60683
-7.60855
-7.61069
-7.61331
-7.61645
-7.62016
-7.62445
-7.62934
-7.63486
-7.64102
-7.64784
-7.65532
-7.66348
-7.67231
-7.68182
-7.69206
-7.70317
-7.71531
-7.72877
-7.74367
-7.75988
-7.7771
-7.79518
-7.8141
-7.83384
-7.85426
-7.87523
-7.89675
-7.91914
-7.94252
-7.96675
-7.99156
-8.01687
-8.0426
-8.06871
-8.09513
-8.12181
-8.1487
-8.17575
-8.20289
-8.23009
-8.25727
-8.28438
-8.31133
-8.33807
-8.36449
-8.39052
-8.41607
-8.44105
-8.46533
-8.48883
-8.51141
-8.53296
-8.55333
-8.57241
-8.59004
-8.60606
-8.62033
-8.63267
-8.64291
-8.65088
-8.65638
-8.65924
-8.65925
-8.65622
-8.64993
-8.64018
-8.62676
-8.60944
-8.58802
-8.56226
-8.53194
-8.49685
-8.45676
-8.41144
-8.36069
-8.30427
-8.24199
-8.17364
-8.09902
-8.01793
-7.93018
-7.83561
-7.73404
-7.62529
-7.50917
-7.38558
-7.2545
-7.11587
-6.96962
-6.81568
-6.65403
-6.48465
-6.30756
-6.1228
-5.93045
-5.73059
-5.52337
-5.30894
-5.08749
-4.85923
-4.62441
-4.38331
-4.13622
-3.88348
-3.62545
-3.3625
-3.09504
-2.82349
-2.5483
-2.26991
-1.98879
-1.7054
-1.42022
-1.13375
-0.846498
-0.558902
-0.271427
0.0154385
0.301257
0.585621
0.868127
1.14839
1.42603
1.70073
1.97215
2.24004
2.50412
2.76421
3.02013
3.27177
3.51903
3.76182
4.0001
4.23387
4.4632
4.68815
4.90887
5.1255
5.33824
5.54729
5.75291
5.95536
6.15497
6.35203
6.54691
6.73996
6.93158
7.12217
7.31218
7.50201
7.69211
7.88294
8.07498
8.26866
8.46442
8.66265
8.86372
9.06794
9.27555
9.48662
9.70124
9.91951
10.1414
10.3668
10.5956
10.8273
11.0618
11.2988
11.5393
11.7809
12.0386
12.2594
-7.57976
-7.58397
-7.59068
-7.59593
-7.59939
-7.60188
-7.60396
-7.60592
-7.60798
-7.61033
-7.61307
-7.61628
-7.62001
-7.62431
-7.62921
-7.63472
-7.64089
-7.64772
-7.65523
-7.66346
-7.67241
-7.68214
-7.6927
-7.70417
-7.71664
-7.73021
-7.74491
-7.76071
-7.7775
-7.79524
-7.8139
-7.83346
-7.85383
-7.87494
-7.89672
-7.91917
-7.94228
-7.96601
-7.99026
-8.015
-8.04018
-8.06575
-8.09166
-8.11786
-8.1443
-8.17092
-8.19767
-8.22449
-8.25132
-8.2781
-8.30475
-8.33121
-8.3574
-8.38322
-8.40859
-8.43342
-8.45759
-8.481
-8.50354
-8.52507
-8.54548
-8.56462
-8.58234
-8.5985
-8.61294
-8.6255
-8.636
-8.64426
-8.6501
-8.65333
-8.65375
-8.65117
-8.64538
-8.63617
-8.62333
-8.60663
-8.58587
-8.56082
-8.53125
-8.49694
-8.45768
-8.41323
-8.36338
-8.30791
-8.24661
-8.17927
-8.10568
-8.02566
-7.93899
-7.84554
-7.74512
-7.63755
-7.52268
-7.40041
-7.27064
-7.13332
-6.98837
-6.83574
-6.67539
-6.50731
-6.3315
-6.14803
-5.95693
-5.75833
-5.55233
-5.33909
-5.11881
-4.89167
-4.65794
-4.41787
-4.17177
-3.91996
-3.6628
-3.40066
-3.13396
-2.86309
-2.58852
-2.31068
-2.03003
-1.74704
-1.4622
-1.17601
-0.888973
-0.601534
-0.314138
-0.0272734
0.258613
0.543107
0.825815
1.10633
1.3843
1.65937
1.93123
2.19957
2.46418
2.72482
2.98133
3.23358
3.48146
3.72488
3.96377
4.19819
4.42814
4.65373
4.87505
5.09227
5.30555
5.51513
5.72122
5.92411
6.12407
6.32144
6.51654
6.70977
6.90145
7.09201
7.28186
7.47144
7.66116
7.8515
8.04285
8.23569
8.43042
8.62745
8.82713
9.02978
9.23564
9.4449
9.6577
9.87415
10.0943
10.3179
10.545
10.7752
11.0082
11.2438
11.4827
11.7219
11.975
12.1826
-7.57115
-7.57656
-7.58523
-7.59219
-7.59697
-7.60055
-7.6035
-7.60616
-7.60878
-7.61156
-7.61465
-7.61815
-7.62213
-7.62666
-7.63177
-7.63751
-7.64391
-7.65099
-7.65879
-7.66732
-7.67662
-7.68672
-7.69766
-7.70952
-7.72234
-7.73616
-7.751
-7.76682
-7.78357
-7.8012
-7.81968
-7.83898
-7.85905
-7.87986
-7.90136
-7.92352
-7.94629
-7.96963
-7.99348
-8.0178
-8.04256
-8.06771
-8.09321
-8.11902
-8.14509
-8.17137
-8.19779
-8.22432
-8.25088
-8.27742
-8.30386
-8.33013
-8.35616
-8.38185
-8.40713
-8.43188
-8.45602
-8.47943
-8.50198
-8.52358
-8.54407
-8.56332
-8.58119
-8.59754
-8.61219
-8.62498
-8.63575
-8.64431
-8.65048
-8.65407
-8.65489
-8.65273
-8.64739
-8.63865
-8.62632
-8.61016
-8.58996
-8.5655
-8.53655
-8.50288
-8.46429
-8.42053
-8.3714
-8.31667
-8.25613
-8.18956
-8.11678
-8.03756
-7.95173
-7.8591
-7.75953
-7.65283
-7.53886
-7.41749
-7.28863
-7.15221
-7.00814
-6.85637
-6.69687
-6.52962
-6.35463
-6.17194
-5.98162
-5.78375
-5.57846
-5.36589
-5.14624
-4.9197
-4.68652
-4.44696
-4.20133
-3.94994
-3.69314
-3.43133
-3.16489
-2.89425
-2.61985
-2.34213
-2.06156
-1.77861
-1.49377
-1.20754
-0.920433
-0.6329
-0.345384
-0.0583514
0.227737
0.512469
0.795437
1.07625
1.35452
1.62992
1.90211
2.1708
2.43575
2.69675
2.95361
3.2062
3.45438
3.69808
3.93724
4.17189
4.40206
4.62783
4.8493
5.06663
5.27996
5.48955
5.69561
5.89842
6.09824
6.2954
6.49023
6.6831
6.87437
7.06445
7.25374
7.44267
7.63165
7.82115
8.0116
8.20342
8.39706
8.5929
8.7913
8.99258
9.197
9.40479
9.61613
9.83115
10.0499
10.2723
10.4981
10.7271
10.9591
11.1934
11.4308
11.6673
11.9159
12.1121
-7.56519
-7.5716
-7.58175
-7.59008
-7.59603
-7.60063
-7.60447
-7.60788
-7.61114
-7.61446
-7.61802
-7.62194
-7.62631
-7.63119
-7.63665
-7.64273
-7.64947
-7.65691
-7.66506
-7.67397
-7.68365
-7.69414
-7.70546
-7.71765
-7.73074
-7.74476
-7.7597
-7.77556
-7.79228
-7.80986
-7.82822
-7.84736
-7.86723
-7.8878
-7.90903
-7.9309
-7.95337
-7.97638
-7.9999
-8.0239
-8.04834
-8.07317
-8.09837
-8.12389
-8.14968
-8.17571
-8.20191
-8.22823
-8.25462
-8.28101
-8.30732
-8.3335
-8.35946
-8.38512
-8.41038
-8.43515
-8.45933
-8.4828
-8.50546
-8.52717
-8.54781
-8.56723
-8.5853
-8.60186
-8.61676
-8.62982
-8.64087
-8.64974
-8.65624
-8.66019
-8.66137
-8.6596
-8.65467
-8.64636
-8.63447
-8.61877
-8.59904
-8.57507
-8.54662
-8.51348
-8.47541
-8.4322
-8.38362
-8.32945
-8.26948
-8.2035
-8.1313
-8.05267
-7.96743
-7.8754
-7.77642
-7.67031
-7.55694
-7.43617
-7.3079
-7.17204
-7.02852
-6.87727
-6.71827
-6.55149
-6.37695
-6.19467
-6.00473
-5.80721
-5.60224
-5.38996
-5.17055
-4.94421
-4.71119
-4.47176
-4.2262
-3.97485
-3.71806
-3.4562
-3.18969
-2.91894
-2.64439
-2.36649
-2.08571
-1.80253
-1.51745
-1.23097
-0.943587
-0.655782
-0.368001
-0.0806858
0.205701
0.490745
0.774022
1.05515
1.33373
1.60942
1.88189
2.15086
2.41605
2.67727
2.93433
3.18707
3.43538
3.67914
3.91835
4.15297
4.38309
4.60874
4.83007
5.04718
5.26027
5.46951
5.67519
5.87752
6.07683
6.27338
6.46757
6.65969
6.85017
7.03936
7.22771
7.41561
7.60353
7.79189
7.98115
8.17174
8.3641
8.55862
8.75568
8.9556
9.15866
9.36512
9.57518
9.789
10.0066
10.228
10.4528
10.681
10.912
11.1454
11.3813
11.6153
11.8599
12.0466
-7.56265
-7.56973
-7.58085
-7.59016
-7.59705
-7.60251
-7.60714
-7.61126
-7.61515
-7.61904
-7.62311
-7.6275
-7.6323
-7.63759
-7.64344
-7.64991
-7.65702
-7.66482
-7.67334
-7.6826
-7.69263
-7.70346
-7.71509
-7.72756
-7.74088
-7.75505
-7.77007
-7.78595
-7.80264
-7.82013
-7.83839
-7.85739
-7.8771
-7.89748
-7.91851
-7.94016
-7.96238
-7.98516
-8.00844
-8.03221
-8.05642
-8.08104
-8.10603
-8.13137
-8.15699
-8.18287
-8.20894
-8.23516
-8.26147
-8.2878
-8.31409
-8.34026
-8.36624
-8.39195
-8.41728
-8.44214
-8.46644
-8.49005
-8.51286
-8.53476
-8.55559
-8.57524
-8.59354
-8.61035
-8.62551
-8.63886
-8.65021
-8.65938
-8.66621
-8.67048
-8.67201
-8.67059
-8.66602
-8.65808
-8.64657
-8.63125
-8.61191
-8.58834
-8.56029
-8.52755
-8.48989
-8.44708
-8.39891
-8.34515
-8.28558
-8.22
-8.1482
-8.06996
-7.98511
-7.89346
-7.79484
-7.6891
-7.57608
-7.45565
-7.3277
-7.19213
-7.04888
-6.89787
-6.73908
-6.57247
-6.39807
-6.21591
-6.02605
-5.82858
-5.62362
-5.41131
-5.19184
-4.9654
-4.73224
-4.49263
-4.24686
-3.99527
-3.73819
-3.47603
-3.20918
-2.93807
-2.66313
-2.38483
-2.10364
-1.82006
-1.53457
-1.24769
-0.959906
-0.671716
-0.383579
-0.0959216
0.190813
0.476189
0.759795
1.04122
1.32009
1.59603
1.86872
2.13787
2.40323
2.66457
2.9217
3.17445
3.42272
3.66641
3.90549
4.13994
4.36983
4.59519
4.81616
5.03285
5.24546
5.45417
5.65923
5.86089
6.05944
6.25518
6.44846
6.63962
6.82906
7.01715
7.20433
7.39102
7.57766
7.76469
7.95258
8.14177
8.3327
8.52578
8.72141
8.91992
9.12161
9.32677
9.53561
9.74831
9.9649
10.1853
10.4094
10.6367
10.867
11.0994
11.3339
11.5656
11.8068
11.9861
-7.56376
-7.5712
-7.58277
-7.59266
-7.60019
-7.60631
-7.61157
-7.61628
-7.62073
-7.62514
-7.62969
-7.63452
-7.63973
-7.64542
-7.65165
-7.65847
-7.66592
-7.67405
-7.68288
-7.69245
-7.70276
-7.71385
-7.72572
-7.73839
-7.75187
-7.76615
-7.78124
-7.79713
-7.81379
-7.83122
-7.84939
-7.86827
-7.88785
-7.90809
-7.92896
-7.95045
-7.97251
-7.99512
-8.01825
-8.04187
-8.06595
-8.09045
-8.11533
-8.14058
-8.16613
-8.19196
-8.218
-8.24421
-8.27053
-8.2969
-8.32324
-8.3495
-8.37558
-8.4014
-8.42687
-8.4519
-8.47637
-8.50018
-8.5232
-8.54532
-8.56639
-8.58629
-8.60485
-8.62193
-8.63736
-8.65099
-8.66263
-8.6721
-8.67922
-8.6838
-8.68563
-8.68452
-8.68025
-8.67262
-8.66141
-8.6464
-8.62736
-8.60408
-8.57633
-8.54388
-8.5065
-8.46397
-8.41607
-8.36257
-8.30326
-8.23792
-8.16635
-8.08834
-8.00368
-7.91223
-7.81378
-7.70821
-7.59532
-7.47501
-7.34715
-7.21166
-7.06844
-6.91744
-6.75861
-6.59195
-6.41746
-6.23517
-6.04514
-5.84747
-5.64228
-5.4297
-5.20992
-4.98314
-4.74961
-4.50959
-4.26338
-4.01131
-3.75376
-3.49108
-3.22371
-2.95205
-2.67656
-2.39771
-2.11597
-1.83186
-1.54586
-1.25849
-0.970234
-0.681603
-0.393073
-0.105056
0.182019
0.467711
0.751614
1.0333
1.31238
1.58848
1.8613
2.13054
2.39595
2.65728
2.91435
3.16698
3.41506
3.65852
3.89729
4.13141
4.36087
4.58578
4.80619
5.0223
5.23422
5.44221
5.64645
5.84726
6.04486
6.23962
6.43184
6.6219
6.81015
6.99703
7.18292
7.36828
7.55354
7.73917
7.92561
8.11334
8.3028
8.49442
8.6886
8.88571
9.08607
9.28998
9.49769
9.70935
9.92502
10.1446
10.368
10.5947
10.8243
11.0558
11.289
11.5186
11.757
11.9304
-7.56836
-7.57585
-7.58742
-7.5975
-7.60538
-7.61192
-7.61762
-7.62279
-7.62767
-7.63249
-7.63743
-7.64263
-7.64819
-7.65421
-7.66074
-7.66785
-7.67558
-7.68396
-7.69304
-7.70282
-7.71334
-7.72461
-7.73664
-7.74944
-7.76301
-7.77737
-7.79249
-7.80838
-7.82502
-7.8424
-7.8605
-7.8793
-7.89878
-7.91892
-7.9397
-7.96109
-7.98306
-8.00559
-8.02865
-8.0522
-8.07623
-8.10069
-8.12556
-8.15081
-8.17638
-8.20224
-8.22834
-8.25463
-8.28104
-8.30752
-8.334
-8.36041
-8.38665
-8.41266
-8.43833
-8.46357
-8.48826
-8.5123
-8.53556
-8.55793
-8.57925
-8.5994
-8.61822
-8.63556
-8.65126
-8.66515
-8.67705
-8.68678
-8.69416
-8.69898
-8.70106
-8.70019
-8.69616
-8.68875
-8.67776
-8.66296
-8.64412
-8.62104
-8.59347
-8.56119
-8.52397
-8.48159
-8.43383
-8.38046
-8.32126
-8.25601
-8.18452
-8.10657
-8.02197
-7.93053
-7.8321
-7.72651
-7.61359
-7.49321
-7.36527
-7.22965
-7.08629
-6.9351
-6.77606
-6.60914
-6.43436
-6.25175
-6.06138
-5.86332
-5.6577
-5.44466
-5.22439
-4.99708
-4.763
-4.5224
-4.27559
-4.0229
-3.7647
-3.50137
-3.23333
-2.96101
-2.68485
-2.40535
-2.12299
-1.83828
-1.55172
-1.26381
-0.97506
-0.685983
-0.397058
-0.108695
0.178679
0.464641
0.748781
1.03067
1.30989
1.58609
1.85895
2.12817
2.39349
2.65469
2.91154
3.1639
3.41163
3.65468
3.89299
4.12656
4.35541
4.57964
4.79932
5.01462
5.22568
5.43275
5.63602
5.83579
6.03232
6.22593
6.41697
6.60579
6.79277
6.97832
7.16285
7.34681
7.53064
7.71481
7.89979
8.08605
8.27404
8.46421
8.65698
8.85274
9.05184
9.25458
9.46123
9.67194
9.8868
10.1057
10.3284
10.5545
10.7835
11.0142
11.2462
11.474
11.7101
11.8791
-7.57603
-7.58331
-7.59449
-7.60441
-7.61236
-7.61907
-7.62502
-7.63045
-7.63562
-7.64073
-7.64594
-7.6514
-7.65721
-7.66346
-7.67021
-7.67751
-7.68543
-7.69398
-7.70321
-7.71313
-7.72377
-7.73514
-7.74725
-7.76012
-7.77374
-7.78812
-7.80325
-7.81913
-7.83575
-7.8531
-7.87115
-7.88991
-7.90934
-7.92943
-7.95017
-7.97152
-7.99347
-8.01599
-8.03904
-8.06261
-8.08666
-8.11118
-8.13611
-8.16143
-8.1871
-8.21308
-8.23931
-8.26574
-8.29231
-8.31897
-8.34564
-8.37224
-8.3987
-8.42493
-8.45083
-8.4763
-8.50123
-8.52551
-8.54901
-8.57162
-8.59318
-8.61357
-8.63262
-8.65019
-8.66611
-8.68021
-8.69231
-8.70223
-8.70979
-8.71479
-8.71703
-8.71631
-8.71241
-8.70514
-8.69426
-8.67956
-8.66082
-8.63781
-8.6103
-8.57807
-8.5409
-8.49854
-8.45079
-8.39741
-8.33818
-8.2729
-8.20135
-8.12333
-8.03862
-7.94708
-7.84852
-7.74276
-7.62966
-7.50907
-7.38089
-7.24501
-7.10134
-6.94982
-6.79042
-6.6231
-6.44789
-6.26482
-6.07395
-5.87536
-5.66918
-5.45555
-5.23465
-5.00671
-4.77194
-4.53065
-4.28313
-4.02972
-3.77078
-3.50672
-3.23793
-2.96488
-2.68801
-2.40781
-2.1248
-1.83947
-1.55233
-1.26388
-0.974643
-0.685135
-0.395825
-0.10714
0.180492
0.466664
0.750967
1.03297
1.31225
1.58844
1.86121
2.13028
2.39537
2.65625
2.91272
3.1646
3.41181
3.65424
3.89188
4.12469
4.35275
4.57608
4.79484
5.00913
5.21916
5.42511
5.62725
5.82581
6.02111
6.21345
6.40317
6.59064
6.77624
6.96038
7.14349
7.32599
7.50837
7.69107
7.87459
8.0594
8.24597
8.43475
8.62619
8.8207
9.01863
9.22032
9.42603
9.63595
9.8501
10.0684
10.2906
10.5163
10.7447
10.9747
11.2057
11.4319
11.6662
11.832
-7.58618
-7.59305
-7.60353
-7.613
-7.62075
-7.62741
-7.63339
-7.63891
-7.6442
-7.64944
-7.65479
-7.66039
-7.66632
-7.67268
-7.67953
-7.68693
-7.69492
-7.70354
-7.71283
-7.7228
-7.73348
-7.74489
-7.75702
-7.76991
-7.78353
-7.79792
-7.81304
-7.82891
-7.84552
-7.86285
-7.88089
-7.89964
-7.91907
-7.93916
-7.9599
-7.98127
-8.00325
-8.02581
-8.04893
-8.07258
-8.09674
-8.12137
-8.14643
-8.1719
-8.19773
-8.22387
-8.25028
-8.2769
-8.30367
-8.33054
-8.35742
-8.38425
-8.41093
-8.43738
-8.4635
-8.48919
-8.51434
-8.53883
-8.56254
-8.58535
-8.6071
-8.62766
-8.64687
-8.66459
-8.68065
-8.69487
-8.70708
-8.7171
-8.72474
-8.7298
-8.73209
-8.73141
-8.72754
-8.72027
-8.70939
-8.69467
-8.67589
-8.65283
-8.62527
-8.59296
-8.5557
-8.51324
-8.46537
-8.41186
-8.35249
-8.28704
-8.21532
-8.13709
-8.05218
-7.9604
-7.86158
-7.75555
-7.64215
-7.52124
-7.39271
-7.25645
-7.11237
-6.96042
-6.80054
-6.63273
-6.457
-6.27337
-6.08191
-5.8827
-5.67588
-5.46158
-5.23999
-5.01133
-4.77584
-4.5338
-4.28552
-4.03134
-3.77164
-3.5068
-3.23725
-2.96344
-2.68584
-2.40495
-2.12127
-1.83532
-1.5476
-1.25863
-0.968939
-0.679031
-0.389376
-0.100431
0.187378
0.473652
0.758002
1.03999
1.31918
1.5952
1.86773
2.13646
2.40114
2.66152
2.91741
3.16864
3.41512
3.65675
3.89352
4.1254
4.35245
4.57473
4.79236
5.00548
5.21429
5.41898
5.61981
5.81703
6.01096
6.20189
6.39019
6.57621
6.76034
6.943
7.12462
7.30564
7.48653
7.66777
7.84984
8.03323
8.21841
8.40588
8.59607
8.78941
8.98629
9.18705
9.39194
9.60117
9.81476
10.0326
10.2544
10.4797
10.7077
10.9372
11.1673
11.3922
11.625
11.7885
-7.59818
-7.60448
-7.61403
-7.62281
-7.63014
-7.63654
-7.64234
-7.64777
-7.65299
-7.6582
-7.66353
-7.66911
-7.67503
-7.68138
-7.68821
-7.69559
-7.70356
-7.71216
-7.72142
-7.73138
-7.74204
-7.75342
-7.76554
-7.77841
-7.79203
-7.8064
-7.82151
-7.83738
-7.85399
-7.87133
-7.88938
-7.90814
-7.92759
-7.94771
-7.96849
-7.98992
-8.01196
-8.03462
-8.05785
-8.08164
-8.10595
-8.13074
-8.15598
-8.18163
-8.20764
-8.23398
-8.26058
-8.2874
-8.31437
-8.34144
-8.36851
-8.39553
-8.4224
-8.44903
-8.47532
-8.50118
-8.52647
-8.5511
-8.57492
-8.59782
-8.61966
-8.64029
-8.65955
-8.6773
-8.69337
-8.70758
-8.71977
-8.72975
-8.73733
-8.74233
-8.74453
-8.74375
-8.73976
-8.73237
-8.72134
-8.70647
-8.68753
-8.66429
-8.63654
-8.60404
-8.56656
-8.52389
-8.47578
-8.42203
-8.36241
-8.2967
-8.22469
-8.14618
-8.06095
-7.96885
-7.86969
-7.76331
-7.64953
-7.52823
-7.39927
-7.26257
-7.11802
-6.96558
-6.8052
-6.63685
-6.46056
-6.27634
-6.08426
-5.88442
-5.67693
-5.46194
-5.23965
-5.01025
-4.77402
-4.53121
-4.28217
-4.02721
-3.76673
-3.50111
-3.2308
-2.95624
-2.67793
-2.39637
-2.11207
-1.82554
-1.53731
-1.2479
-0.957843
-0.667619
-0.377733
-0.0886593
0.199182
0.485403
0.769633
1.05143
1.33036
1.60603
1.87812
2.14634
2.4104
2.67008
2.92517
3.17556
3.4211
3.66174
3.89743
4.12819
4.35403
4.57507
4.7914
5.00318
5.21059
5.41387
5.61324
5.809
6.00143
6.19086
6.37762
6.56212
6.74472
6.92586
7.10596
7.28548
7.46489
7.64469
7.82535
8.00738
8.19127
8.37751
8.56657
8.75887
8.95483
9.15479
9.35903
9.56771
9.78089
9.99841
10.22
10.445
10.6728
10.9018
11.1312
11.3551
11.5867
11.7488
-7.6114
-7.61703
-7.62551
-7.63342
-7.64014
-7.64608
-7.65152
-7.65664
-7.66162
-7.66662
-7.67176
-7.67717
-7.68293
-7.68913
-7.69583
-7.70309
-7.71095
-7.71946
-7.72864
-7.73851
-7.7491
-7.76043
-7.7725
-7.78532
-7.79891
-7.81325
-7.82834
-7.84419
-7.86079
-7.87813
-7.8962
-7.91498
-7.93447
-7.95464
-7.97549
-7.99701
-8.01917
-8.04196
-8.06533
-8.08927
-8.11374
-8.13871
-8.16411
-8.18993
-8.2161
-8.2426
-8.26935
-8.29631
-8.32342
-8.35061
-8.37781
-8.40493
-8.43188
-8.45859
-8.48493
-8.51081
-8.53612
-8.56073
-8.58453
-8.60737
-8.62913
-8.64966
-8.66881
-8.68642
-8.70234
-8.71638
-8.72838
-8.73816
-8.74552
-8.75029
-8.75225
-8.75121
-8.74697
-8.7393
-8.728
-8.71285
-8.69362
-8.6701
-8.64205
-8.60925
-8.57147
-8.52849
-8.48008
-8.42601
-8.36606
-8.30003
-8.22769
-8.14884
-8.06327
-7.97081
-7.87128
-7.76451
-7.65034
-7.52861
-7.39922
-7.26206
-7.11705
-6.96411
-6.80321
-6.63433
-6.45747
-6.27267
-6.07999
-5.87952
-5.67138
-5.45572
-5.23273
-5.00264
-4.76568
-4.52215
-4.27236
-4.01667
-3.75545
-3.48912
-3.2181
-2.94288
-2.66394
-2.3818
-2.09697
-1.80998
-1.52136
-1.23164
-0.941322
-0.650921
-0.360967
-0.0719324
0.215764
0.501751
0.785661
1.06707
1.34553
1.62065
1.8921
2.15957
2.4228
2.68156
2.93567
3.18498
3.42939
3.66883
3.90325
4.13268
4.35715
4.57676
4.79162
5.0019
5.20778
5.4095
5.6073
5.80147
5.99231
6.18014
6.36532
6.54823
6.72927
6.90886
7.08744
7.26547
7.44343
7.62182
7.80114
7.98188
8.16457
8.34969
8.53773
8.72913
8.92431
9.12361
9.32734
9.53563
9.74852
9.96586
10.1873
10.4122
10.6398
10.8685
11.0974
11.3205
11.5511
11.7126
-7.6253
-7.63021
-7.63754
-7.64447
-7.65042
-7.6557
-7.66057
-7.6652
-7.66973
-7.67431
-7.67909
-7.68417
-7.68964
-7.69557
-7.70203
-7.70908
-7.71675
-7.72509
-7.73411
-7.74385
-7.75432
-7.76554
-7.77752
-7.79026
-7.80377
-7.81806
-7.83311
-7.84893
-7.86551
-7.88284
-7.90092
-7.91973
-7.93927
-7.95951
-7.98044
-8.00206
-8.02432
-8.04721
-8.07069
-8.09473
-8.1193
-8.14435
-8.16984
-8.19573
-8.22196
-8.24849
-8.27526
-8.30223
-8.32933
-8.3565
-8.38365
-8.4107
-8.43757
-8.46415
-8.49035
-8.51607
-8.54119
-8.56559
-8.58915
-8.61174
-8.63322
-8.65346
-8.6723
-8.68958
-8.70516
-8.71885
-8.73049
-8.7399
-8.74689
-8.75128
-8.75286
-8.75144
-8.74682
-8.73877
-8.72709
-8.71156
-8.69196
-8.66807
-8.63965
-8.60649
-8.56836
-8.52502
-8.47625
-8.42183
-8.36154
-8.29516
-8.22249
-8.14329
-8.05738
-7.96456
-7.86467
-7.75753
-7.64297
-7.52086
-7.39106
-7.25348
-7.10803
-6.95464
-6.79327
-6.6239
-6.44654
-6.26121
-6.06799
-5.86695
-5.65823
-5.44198
-5.21838
-4.98767
-4.75008
-4.50592
-4.25549
-3.99918
-3.73734
-3.47041
-3.19882
-2.92307
-2.64364
-2.36107
-2.07588
-1.7886
-1.49975
-1.20987
-0.919465
-0.629093
-0.339276
-0.0504882
0.236857
0.522393
0.80576
1.08655
1.36431
1.63865
1.90922
2.17571
2.43788
2.6955
2.9484
3.19643
3.4395
3.67752
3.9105
4.13841
4.36134
4.57936
4.79261
5.00124
5.20547
5.40552
5.60166
5.79416
5.98334
6.16953
6.35309
6.53439
6.71386
6.89192
7.069
7.24559
7.42217
7.59924
7.7773
7.95687
8.13847
8.32261
8.50977
8.70042
8.89497
9.09379
9.29714
9.5052
9.71795
9.93524
10.1567
10.3816
10.6091
10.8376
11.0662
11.2887
11.5184
11.6799
-7.64
-7.64419
-7.65038
-7.65624
-7.66124
-7.66565
-7.6697
-7.67356
-7.67739
-7.68134
-7.68554
-7.6901
-7.69509
-7.7006
-7.70668
-7.71339
-7.72076
-7.72882
-7.73759
-7.74711
-7.75738
-7.76842
-7.78023
-7.79282
-7.8062
-7.82037
-7.83532
-7.85106
-7.86756
-7.88483
-7.90286
-7.92163
-7.94114
-7.96138
-7.9823
-8.0039
-8.02614
-8.049
-8.07242
-8.0964
-8.12089
-8.14584
-8.17121
-8.19696
-8.22303
-8.24939
-8.27597
-8.30272
-8.32958
-8.35648
-8.38333
-8.41007
-8.43659
-8.46281
-8.48861
-8.51391
-8.53859
-8.56253
-8.58562
-8.60772
-8.62871
-8.64844
-8.66676
-8.68353
-8.69858
-8.71176
-8.72287
-8.73177
-8.73825
-8.74214
-8.74323
-8.74133
-8.73623
-8.72773
-8.7156
-8.69963
-8.67962
-8.65531
-8.62652
-8.59296
-8.55447
-8.51076
-8.46167
-8.40692
-8.34632
-8.27963
-8.20664
-8.12716
-8.04094
-7.94782
-7.84762
-7.74017
-7.6253
-7.50287
-7.37276
-7.23484
-7.08905
-6.9353
-6.77357
-6.60382
-6.42607
-6.24034
-6.04669
-5.84523
-5.63607
-5.41936
-5.19531
-4.96413
-4.72608
-4.48145
-4.23057
-3.9738
-3.71154
-3.4442
-3.17225
-2.89617
-2.61649
-2.33371
-2.04838
-1.76102
-1.47216
-1.18234
-0.892113
-0.602027
-0.312597
-0.0243029
0.262442
0.54727
0.829833
1.10974
1.38654
1.65983
1.92926
2.19453
2.45539
2.71163
2.96309
3.20963
3.45115