/*--------------------------------*- C++ -*----------------------------------*\
  =========                 |
  \\      /  F ield         | OpenFOAM: The Open Source CFD Toolbox
   \\    /   O peration     | Website:  https://openfoam.org
    \\  /    A nd           | Version:  8
     \\/     M anipulation  |
\*---------------------------------------------------------------------------*/
FoamFile
{
    version     2.0;
    format      ascii;
    class       surfaceScalarField;
    location    "200";
    object      phi;
}
// * * * * * * * * * * * * * * * * * * * * * * * * * * * * * * * * * * * * * //

dimensions      [0 3 -1 0 0 0 0];

internalField   nonuniform List<scalar> 
24170
(
3.129e-06
5.94012e-08
3.04662e-06
8.23812e-08
2.97353e-06
7.30951e-08
2.90489e-06
6.86367e-08
2.84056e-06
6.4333e-08
2.78323e-06
5.73293e-08
2.7339e-06
4.93294e-08
2.69194e-06
4.19581e-08
2.65626e-06
3.56814e-08
2.6258e-06
3.04552e-08
2.59959e-06
2.62105e-08
2.57678e-06
2.28054e-08
2.55671e-06
2.00726e-08
2.53879e-06
1.79149e-08
2.52264e-06
1.61518e-08
2.50718e-06
1.5462e-08
2.49286e-06
1.43205e-08
2.00795e-08
2.47278e-06
3.45306e-06
2.3586e-08
3.457e-06
7.84399e-08
3.45054e-06
7.95567e-08
3.43908e-06
8.00945e-08
3.4243e-06
7.9113e-08
3.40705e-06
7.45812e-08
3.38783e-06
6.85515e-08
3.3673e-06
6.24885e-08
3.34614e-06
5.68341e-08
3.32495e-06
5.16444e-08
3.30421e-06
4.69517e-08
3.28419e-06
4.28254e-08
3.26509e-06
3.91749e-08
3.24694e-06
3.60666e-08
3.22982e-06
3.32666e-08
3.21369e-06
3.15883e-08
3.19887e-06
2.91436e-08
3.14583e-08
3.18749e-06
3.66816e-06
1.79432e-08
3.6792e-06
6.73994e-08
3.68543e-06
7.33305e-08
3.68946e-06
7.60619e-08
3.69105e-06
7.75174e-08
3.69008e-06
7.55499e-08
3.68694e-06
7.16915e-08
3.6821e-06
6.73338e-08
3.67594e-06
6.29911e-08
3.66879e-06
5.87903e-08
3.66094e-06
5.48081e-08
3.65262e-06
5.11459e-08
3.64402e-06
4.77754e-08
3.63529e-06
4.47914e-08
3.6265e-06
4.20522e-08
3.61804e-06
4.0053e-08
3.60932e-06
3.78659e-08
3.76553e-08
3.60312e-06
3.92585e-06
1.74829e-08
3.93592e-06
5.73296e-08
3.94257e-06
6.66804e-08
3.94811e-06
7.05228e-08
3.95252e-06
7.3105e-08
3.95546e-06
7.26046e-08
3.95713e-06
7.00253e-08
3.95776e-06
6.67046e-08
3.95754e-06
6.32101e-08
3.95662e-06
5.97109e-08
3.95513e-06
5.62968e-08
3.95319e-06
5.30809e-08
3.9509e-06
5.00665e-08
3.94835e-06
4.73381e-08
3.94558e-06
4.48217e-08
3.94286e-06
4.27713e-08
3.93994e-06
4.07916e-08
3.9498e-08
3.93809e-06
4.2082e-06
1.64109e-08
4.21598e-06
4.95455e-08
4.22168e-06
6.09841e-08
4.22678e-06
6.54197e-08
4.23153e-06
6.83593e-08
4.2355e-06
6.86364e-08
4.23866e-06
6.68614e-08
4.24113e-06
6.42331e-08
4.24302e-06
6.13251e-08
4.2444e-06
5.83249e-08
4.24537e-06
5.53304e-08
4.246e-06
5.24521e-08
4.24634e-06
4.97187e-08
4.24649e-06
4.71956e-08
4.24646e-06
4.48506e-08
4.24643e-06
4.28012e-08
4.24635e-06
4.08672e-08
3.91412e-08
4.24671e-06
4.51071e-06
1.47886e-08
4.51688e-06
4.33732e-08
4.52213e-06
5.57369e-08
4.52694e-06
6.06049e-08
4.53165e-06
6.36493e-08
4.5359e-06
6.43909e-08
4.53957e-06
6.31918e-08
4.54272e-06
6.10771e-08
4.54544e-06
5.8609e-08
4.54778e-06
5.59872e-08
4.54979e-06
5.33193e-08
4.55153e-06
5.07085e-08
4.55305e-06
4.82003e-08
4.5544e-06
4.58426e-08
4.55562e-06
4.36257e-08
4.55683e-06
4.15936e-08
4.55805e-06
3.96512e-08
3.77393e-08
4.55945e-06
4.83433e-06
1.31789e-08
4.83963e-06
3.80766e-08
4.84475e-06
5.0614e-08
4.84945e-06
5.59036e-08
4.85408e-06
5.90192e-08
4.85839e-06
6.0077e-08
4.86226e-06
5.9324e-08
4.86572e-06
5.76175e-08
4.86883e-06
5.55004e-08
4.87163e-06
5.31836e-08
4.87417e-06
5.07828e-08
4.87648e-06
4.83941e-08
4.87861e-06
4.60721e-08
4.8806e-06
4.38531e-08
4.88249e-06
4.17376e-08
4.88435e-06
3.97334e-08
4.88622e-06
3.7781e-08
3.57976e-08
4.88816e-06
5.18105e-06
1.17129e-08
5.18575e-06
3.33713e-08
5.19075e-06
4.56136e-08
5.1954e-06
5.12545e-08
5.19998e-06
5.44363e-08
5.20434e-06
5.57214e-08
5.20833e-06
5.53323e-08
5.21197e-06
5.39724e-08
5.21532e-06
5.21541e-08
5.2184e-06
5.00991e-08
5.22126e-06
4.79281e-08
5.22392e-06
4.57329e-08
5.22642e-06
4.35714e-08
5.2288e-06
4.14745e-08
5.23109e-06
3.94466e-08
5.23334e-06
3.74814e-08
5.23558e-06
3.55369e-08
3.35472e-08
5.23783e-06
5.55269e-06
1.0358e-08
5.55689e-06
2.91763e-08
5.56169e-06
4.08086e-08
5.5663e-06
4.66487e-08
5.57086e-06
4.98752e-08
5.57526e-06
5.13203e-08
5.57936e-06
5.12323e-08
5.58315e-06
5.01775e-08
5.58668e-06
4.86259e-08
5.58997e-06
4.68064e-08
5.59306e-06
4.48425e-08
5.59597e-06
4.28236e-08
5.59873e-06
4.0808e-08
5.60138e-06
3.88251e-08
5.60395e-06
3.68816e-08
5.60646e-06
3.49688e-08
5.60894e-06
3.30563e-08
3.11043e-08
5.61138e-06
5.95104e-06
9.09535e-09
5.95478e-06
2.543e-08
5.95936e-06
3.62377e-08
5.96391e-06
4.20961e-08
5.96845e-06
4.53314e-08
5.97289e-06
4.68798e-08
5.97709e-06
4.70337e-08
5.98102e-06
4.62471e-08
5.98471e-06
4.49372e-08
5.98818e-06
4.33342e-08
5.99146e-06
4.15633e-08
5.99457e-06
3.97109e-08
5.99754e-06
3.78347e-08
6.0004e-06
3.59648e-08
6.00317e-06
3.41103e-08
6.00588e-06
3.22658e-08
6.00852e-06
3.0411e-08
2.85288e-08
6.0111e-06
6.37798e-06
7.92469e-09
6.38134e-06
2.20682e-08
6.38567e-06
3.19115e-08
6.39015e-06
3.76135e-08
6.39467e-06
4.08107e-08
6.39914e-06
4.24119e-08
6.40343e-06
4.27491e-08
6.40748e-06
4.21917e-08
6.41132e-06
4.11002e-08
6.41495e-06
3.96976e-08
6.41841e-06
3.81088e-08
6.4217e-06
3.64172e-08
6.42486e-06
3.46792e-08
6.42789e-06
3.29261e-08
6.43083e-06
3.11703e-08
6.43369e-06
2.94115e-08
6.43646e-06
2.76388e-08
2.58522e-08
6.43914e-06
5.74176e-06
6.99894e-09
5.74434e-06
1.94863e-08
5.74781e-06
2.84439e-08
5.75153e-06
3.38879e-08
5.75533e-06
3.7011e-08
5.75912e-06
3.8623e-08
5.7628e-06
3.90705e-08
5.76632e-06
3.86747e-08
5.76967e-06
3.77495e-08
5.77286e-06
3.65046e-08
5.77591e-06
3.50626e-08
5.77882e-06
3.35043e-08
5.78161e-06
3.18844e-08
5.7843e-06
3.02353e-08
5.7869e-06
2.85724e-08
5.78941e-06
2.69e-08
5.79184e-06
2.52135e-08
2.35246e-08
5.79417e-06
6.99914e-06
6.01576e-09
7.00187e-06
1.67539e-08
7.00563e-06
2.46812e-08
7.0098e-06
2.97232e-08
7.01411e-06
3.26936e-08
7.01847e-06
3.4272e-08
7.02274e-06
3.48002e-08
7.02686e-06
3.45534e-08
7.03081e-06
3.37956e-08
7.0346e-06
3.27173e-08
7.03822e-06
3.1436e-08
7.0417e-06
3.0028e-08
7.04504e-06
2.85462e-08
7.04825e-06
2.70236e-08
7.05134e-06
2.54786e-08
7.05432e-06
2.39202e-08
7.05719e-06
2.23499e-08
2.07879e-08
7.05992e-06
8.53188e-06
4.98289e-09
8.53474e-06
1.38985e-08
8.53877e-06
2.0651e-08
8.54336e-06
2.51264e-08
8.54822e-06
2.78396e-08
8.55317e-06
2.9321e-08
8.55808e-06
2.98838e-08
8.56288e-06
2.97593e-08
8.56751e-06
2.9161e-08
8.57197e-06
2.82535e-08
8.57627e-06
2.71445e-08
8.58039e-06
2.5905e-08
8.58435e-06
2.45844e-08
8.58816e-06
2.32155e-08
8.59182e-06
2.18189e-08
8.59533e-06
2.04081e-08
8.59869e-06
1.89889e-08
1.75867e-08
8.60189e-06
1.04003e-05
3.90936e-09
1.04033e-05
1.09393e-08
1.04075e-05
1.63748e-08
1.04125e-05
2.01057e-08
1.0418e-05
2.24326e-08
1.04235e-05
2.37328e-08
1.04292e-05
2.42671e-08
1.04347e-05
2.42231e-08
1.04401e-05
2.3765e-08
1.04453e-05
2.30259e-08
1.04504e-05
2.20986e-08
1.04552e-05
2.10459e-08
1.04599e-05
1.9912e-08
1.04644e-05
1.87282e-08
1.04687e-05
1.75158e-08
1.04728e-05
1.62904e-08
1.04767e-05
1.50608e-08
1.38543e-08
1.04805e-05
1.26779e-05
2.80013e-09
1.2681e-05
7.87068e-09
1.26855e-05
1.18507e-08
1.26909e-05
1.46553e-08
1.26969e-05
1.64446e-08
1.27032e-05
1.74581e-08
1.27096e-05
1.78857e-08
1.27159e-05
1.78669e-08
1.27222e-05
1.7519e-08
1.27283e-05
1.69394e-08
1.27342e-05
1.62003e-08
1.27399e-05
1.53528e-08
1.27453e-05
1.44335e-08
1.27506e-05
1.34693e-08
1.27556e-05
1.248e-08
1.27604e-05
1.14811e-08
1.2765e-05
1.04819e-08
9.50897e-09
1.27694e-05
1.54543e-05
1.64421e-09
1.54576e-05
4.64637e-09
1.54624e-05
7.02097e-09
1.54683e-05
8.71476e-09
1.5475e-05
9.8014e-09
1.5482e-05
1.04062e-08
1.54893e-05
1.06388e-08
1.54966e-05
1.0583e-08
1.55038e-05
1.03092e-08
1.55108e-05
9.87684e-09
1.55177e-05
9.33236e-09
1.55243e-05
8.70998e-09
1.55307e-05
8.03536e-09
1.55369e-05
7.32818e-09
1.55428e-05
6.60376e-09
1.55484e-05
5.87465e-09
1.55537e-05
5.1486e-09
4.44854e-09
1.55588e-05
1.88389e-05
4.01463e-10
1.88424e-05
1.14152e-09
1.88477e-05
1.71139e-09
1.88543e-05
2.09271e-09
1.88618e-05
2.30483e-09
1.88698e-05
2.37566e-09
1.88782e-05
2.32713e-09
1.88866e-05
2.17893e-09
1.88949e-05
1.95111e-09
1.89031e-05
1.66182e-09
1.89111e-05
1.32621e-09
1.89189e-05
9.5678e-10
1.89264e-05
5.64239e-10
1.89335e-05
1.57728e-10
1.89404e-05
-2.54889e-10
1.89469e-05
-6.66459e-10
1.89532e-05
-1.07279e-09
-1.45634e-09
1.89591e-05
2.29648e-05
-1.02962e-09
2.29688e-05
-2.93309e-09
2.29751e-05
-4.49771e-09
2.29828e-05
-5.6874e-09
2.29917e-05
-6.52327e-09
2.30011e-05
-7.09151e-09
2.30109e-05
-7.4795e-09
2.30209e-05
-7.74179e-09
2.30307e-05
-7.91531e-09
2.30404e-05
-8.03115e-09
2.30498e-05
-8.11341e-09
2.3059e-05
-8.1764e-09
2.30678e-05
-8.22837e-09
2.30762e-05
-8.27342e-09
2.30843e-05
-8.31386e-09
2.30919e-05
-8.34953e-09
2.30993e-05
-8.38129e-09
-8.39806e-09
2.31062e-05
1.68118e-05
-2.1533e-09
1.6815e-05
-6.10629e-09
1.68198e-05
-9.33166e-09
1.68258e-05
-1.16904e-08
1.68326e-05
-1.32422e-08
1.68397e-05
-1.4215e-08
1.6847e-05
-1.47961e-08
1.68543e-05
-1.50895e-08
1.68616e-05
-1.5174e-08
1.68687e-05
-1.5122e-08
1.68756e-05
-1.49859e-08
1.68822e-05
-1.4799e-08
1.68885e-05
-1.45819e-08
1.68946e-05
-1.43485e-08
1.69004e-05
-1.41073e-08
1.69059e-05
-1.38632e-08
1.69112e-05
-1.36191e-08
-1.33686e-08
1.69161e-05
1.46356e-05
-3.23254e-09
1.46387e-05
-9.19553e-09
1.46435e-05
-1.40497e-08
1.46492e-05
-1.74393e-08
1.46555e-05
-1.95357e-08
1.46621e-05
-2.07888e-08
1.46687e-05
-2.14686e-08
1.46754e-05
-2.1711e-08
1.46818e-05
-2.16474e-08
1.46881e-05
-2.1394e-08
1.46941e-05
-2.10266e-08
1.46999e-05
-2.05899e-08
1.47055e-05
-2.01142e-08
1.47107e-05
-1.96204e-08
1.47158e-05
-1.9122e-08
1.47205e-05
-1.86262e-08
1.4725e-05
-1.81381e-08
-1.76532e-08
1.47293e-05
1.27411e-05
-4.24313e-09
1.27443e-05
-1.23253e-08
1.27491e-05
-1.88838e-08
1.27548e-05
-2.309e-08
1.27607e-05
-2.55222e-08
1.27669e-05
-2.69543e-08
1.27731e-05
-2.7649e-08
1.27791e-05
-2.77556e-08
1.2785e-05
-2.74813e-08
1.27906e-05
-2.69915e-08
1.27959e-05
-2.63757e-08
1.2801e-05
-2.56856e-08
1.28058e-05
-2.49582e-08
1.28104e-05
-2.4219e-08
1.28148e-05
-2.34837e-08
1.28189e-05
-2.27602e-08
1.28229e-05
-2.20536e-08
-2.13608e-08
1.28266e-05
1.10918e-05
-5.0876e-09
1.1095e-05
-1.55491e-08
1.11001e-05
-2.40125e-08
1.11058e-05
-2.87183e-08
1.11115e-05
-3.12625e-08
1.11173e-05
-3.27737e-08
1.1123e-05
-3.33835e-08
1.11286e-05
-3.3274e-08
1.11338e-05
-3.27479e-08
1.11388e-05
-3.20024e-08
1.11436e-05
-3.11293e-08
1.11481e-05
-3.01854e-08
1.11523e-05
-2.92136e-08
1.11564e-05
-2.82427e-08
1.11602e-05
-2.72876e-08
1.11638e-05
-2.63567e-08
1.11672e-05
-2.54537e-08
-2.45764e-08
1.11704e-05
9.65582e-06
-5.69527e-09
9.65925e-06
-1.89747e-08
9.6646e-06
-2.93601e-08
9.67009e-06
-3.4218e-08
9.67566e-06
-3.68241e-08
9.68122e-06
-3.83367e-08
9.68656e-06
-3.87205e-08
9.69159e-06
-3.83063e-08
9.69634e-06
-3.74973e-08
9.70082e-06
-3.64876e-08
9.70505e-06
-3.53561e-08
9.70902e-06
-3.41622e-08
9.71276e-06
-3.29536e-08
9.71628e-06
-3.17597e-08
9.71959e-06
-3.05956e-08
9.7227e-06
-2.94682e-08
9.72563e-06
-2.83799e-08
-2.73266e-08
9.72838e-06
8.40532e-06
-5.66623e-09
8.40964e-06
-2.32907e-08
8.41488e-06
-3.45967e-08
8.41991e-06
-3.92477e-08
8.42527e-06
-4.21924e-08
8.43068e-06
-4.37473e-08
8.43577e-06
-4.38088e-08
8.44048e-06
-4.30153e-08
8.44485e-06
-4.18695e-08
8.44891e-06
-4.05477e-08
8.45268e-06
-3.91195e-08
8.45616e-06
-3.76471e-08
8.45939e-06
-3.61803e-08
8.46237e-06
-3.47467e-08
8.46514e-06
-3.33614e-08
8.4677e-06
-3.20305e-08
8.47008e-06
-3.07561e-08
-2.95345e-08
8.47229e-06
7.31455e-06
-2.92869e-09
7.32119e-06
-2.99348e-08
7.32674e-06
-4.0149e-08
7.3317e-06
-4.42006e-08
7.3371e-06
-4.75918e-08
7.34242e-06
-4.907e-08
7.3473e-06
-4.86886e-08
7.35171e-06
-4.74303e-08
7.35569e-06
-4.58496e-08
7.35925e-06
-4.41055e-08
7.36241e-06
-4.22781e-08
7.3652e-06
-4.04404e-08
7.36767e-06
-3.86447e-08
7.36983e-06
-3.69152e-08
7.37174e-06
-3.52673e-08
7.37341e-06
-3.37035e-08
7.37488e-06
-3.22242e-08
-3.082e-08
7.37617e-06
6.36245e-06
4.68706e-09
6.37189e-06
-3.93772e-08
6.37932e-06
-4.7577e-08
6.38596e-06
-5.08427e-08
6.39225e-06
-5.38752e-08
6.39756e-06
-5.43843e-08
6.40186e-06
-5.29848e-08
6.40534e-06
-5.09124e-08
6.40814e-06
-4.8651e-08
6.41033e-06
-4.62919e-08
6.41196e-06
-4.39124e-08
6.41311e-06
-4.15892e-08
6.41384e-06
-3.93733e-08
6.41421e-06
-3.72828e-08
6.41427e-06
-3.53315e-08
6.41408e-06
-3.35155e-08
6.41369e-06
-3.18357e-08
-3.02724e-08
6.41315e-06
5.5412e-06
8.94925e-09
5.55033e-06
-4.85007e-08
5.55834e-06
-5.55959e-08
5.56605e-06
-5.85456e-08
5.57251e-06
-6.03376e-08
5.57684e-06
-5.87101e-08
5.57908e-06
-5.52275e-08
5.57964e-06
-5.1473e-08
5.57889e-06
-4.78989e-08
5.5771e-06
-4.45084e-08
5.57451e-06
-4.13203e-08
5.5713e-06
-3.83772e-08
5.56761e-06
-3.56874e-08
5.56357e-06
-3.32426e-08
5.55928e-06
-3.10398e-08
5.55483e-06
-2.9062e-08
5.5503e-06
-2.7311e-08
-2.57376e-08
5.54577e-06
4.86004e-06
-2.3487e-08
4.86539e-06
-5.3843e-08
4.86524e-06
-5.54509e-08
4.86217e-06
-5.54766e-08
4.857e-06
-5.51679e-08
4.8495e-06
-5.12104e-08
4.83981e-06
-4.55321e-08
4.82841e-06
-4.00807e-08
4.81584e-06
-3.53265e-08
4.80257e-06
-3.12311e-08
4.78897e-06
-2.77233e-08
4.77533e-06
-2.47404e-08
4.76185e-06
-2.22047e-08
4.74865e-06
-2.00448e-08
4.73583e-06
-1.82147e-08
4.72345e-06
-1.66812e-08
4.71162e-06
-1.54821e-08
-1.51369e-08
4.70102e-06
4.17919e-06
4.12535e-06
4.0699e-06
4.01442e-06
3.95925e-06
3.90804e-06
3.86251e-06
3.82243e-06
3.7871e-06
3.75587e-06
3.72815e-06
3.70341e-06
3.6812e-06
3.66116e-06
3.64294e-06
3.62626e-06
3.61078e-06
3.59564e-06
1.48519e-08
-1.48696e-08
2.85217e-08
-1.3696e-08
3.56897e-08
-7.18754e-09
3.58033e-08
-1.32962e-10
2.97133e-08
6.07518e-09
1.8772e-08
1.09244e-08
4.29826e-09
1.44618e-08
-1.26887e-08
1.69715e-08
-3.14653e-08
1.87672e-08
-5.15572e-08
2.00782e-08
-7.26459e-08
2.10814e-08
-9.45541e-08
2.18958e-08
-1.17153e-07
2.25933e-08
-1.40378e-07
2.32136e-08
-1.64162e-07
2.37799e-08
-1.88481e-07
2.43081e-08
-2.133e-07
2.48158e-08
-2.38636e-07
2.53256e-08
-2.64504e-07
2.58666e-08
-2.90985e-07
2.64714e-08
-3.18171e-07
2.7184e-08
-3.46222e-07
2.80441e-08
-3.75252e-07
2.90295e-08
-4.05425e-07
3.01687e-08
-4.36973e-07
3.15479e-08
-4.68598e-07
3.16232e-08
-4.98041e-07
2.94414e-08
-5.27049e-07
2.90062e-08
-5.58686e-07
3.16328e-08
-5.93258e-07
3.45665e-08
-6.31838e-07
3.85737e-08
-6.77061e-07
4.52111e-08
-7.19907e-07
4.28366e-08
-7.57988e-07
3.8065e-08
-8.01248e-07
4.32539e-08
-8.44931e-07
4.36688e-08
-8.84989e-07
4.00549e-08
-9.24609e-07
3.96097e-08
-9.66699e-07
4.20882e-08
-1.0092e-06
4.24892e-08
-1.05193e-06
4.27283e-08
-1.09482e-06
4.28917e-08
-1.13781e-06
4.29898e-08
-1.18083e-06
4.30141e-08
-1.22381e-06
4.29812e-08
-1.26672e-06
4.29037e-08
-1.30951e-06
4.27948e-08
-1.35218e-06
4.26623e-08
-1.39469e-06
4.25117e-08
-1.43704e-06
4.23458e-08
-1.47921e-06
4.21663e-08
-1.52119e-06
4.19733e-08
-1.56296e-06
4.17665e-08
-1.60451e-06
4.15449e-08
-1.64582e-06
4.13071e-08
-1.68688e-06
4.10508e-08
-1.72766e-06
4.07744e-08
-1.76814e-06
4.04755e-08
-1.80829e-06
4.01525e-08
-1.8481e-06
3.98024e-08
-1.88753e-06
3.94237e-08
-1.92655e-06
3.9014e-08
-1.96512e-06
3.85718e-08
-2.00322e-06
3.80942e-08
-2.04079e-06
3.75801e-08
-2.07782e-06
3.70267e-08
-2.11425e-06
3.64333e-08
-2.15005e-06
3.57977e-08
-2.18516e-06
3.51193e-08
-2.21956e-06
3.4396e-08
-2.25318e-06
3.36275e-08
-2.28599e-06
3.28119e-08
-2.31793e-06
3.19488e-08
-2.34897e-06
3.10366e-08
-2.37903e-06
3.00753e-08
-2.4081e-06
2.90632e-08
-2.43609e-06
2.80011e-08
-2.46298e-06
2.68879e-08
-2.4887e-06
2.57242e-08
-2.5132e-06
2.45079e-08
-2.53643e-06
2.32395e-08
-2.55834e-06
2.1917e-08
-2.57887e-06
2.05402e-08
-2.59797e-06
1.91059e-08
-2.61556e-06
1.76132e-08
-2.63161e-06
1.60582e-08
-2.64603e-06
1.4438e-08
-2.65875e-06
1.27467e-08
-2.66971e-06
1.09774e-08
-2.6788e-06
9.1184e-09
-2.68593e-06
7.15241e-09
-2.69098e-06
5.0645e-09
-2.69382e-06
2.86078e-09
-2.69442e-06
6.08181e-10
-2.69292e-06
-1.48473e-09
-2.68953e-06
-3.38158e-09
-2.68429e-06
-5.22827e-09
-2.67721e-06
-7.06657e-09
-2.66828e-06
-8.91396e-09
-2.6575e-06
-1.07735e-08
-2.64484e-06
-1.26435e-08
-2.6303e-06
-1.45211e-08
-2.61388e-06
-1.64026e-08
-2.59557e-06
-1.8284e-08
-2.57537e-06
-2.01618e-08
-2.5533e-06
-2.20315e-08
-2.52937e-06
-2.38899e-08
-2.5036e-06
-2.57311e-08
-2.476e-06
-2.75519e-08
-2.4466e-06
-2.93454e-08
-2.41545e-06
-3.1109e-08
-2.38256e-06
-3.28344e-08
-2.348e-06
-3.45196e-08
-2.31179e-06
-3.61555e-08
-2.27401e-06
-3.77411e-08
-2.2347e-06
-3.92669e-08
-2.19393e-06
-4.07324e-08
-2.15177e-06
-4.21282e-08
-2.10829e-06
-4.34538e-08
-2.06356e-06
-4.4698e-08
-2.01766e-06
-4.58644e-08
-1.97065e-06
-4.6953e-08
-1.92264e-06
-4.79654e-08
-1.87369e-06
-4.88892e-08
-1.82394e-06
-4.97257e-08
-1.77345e-06
-5.04689e-08
-1.72232e-06
-5.11352e-08
-1.67064e-06
-5.17075e-08
-1.61851e-06
-5.21898e-08
-1.56601e-06
-5.25712e-08
-1.51325e-06
-5.28585e-08
-1.46033e-06
-5.3043e-08
-1.40734e-06
-5.31307e-08
-1.35438e-06
-5.31165e-08
-1.30154e-06
-5.30056e-08
-1.24892e-06
-5.27976e-08
-1.1966e-06
-5.24937e-08
-1.14466e-06
-5.20943e-08
-1.09318e-06
-5.15976e-08
-1.04225e-06
-5.10171e-08
-9.91942e-07
-5.03637e-08
-9.42308e-07
-4.96568e-08
-8.93403e-07
-4.89023e-08
-8.45266e-07
-4.8109e-08
-7.97936e-07
-4.72762e-08
-7.51439e-07
-4.64168e-08
-7.058e-07
-4.55336e-08
-6.61025e-07
-4.46417e-08
-6.17123e-07
-4.37426e-08
-5.74079e-07
-4.2853e-08
-5.31882e-07
-4.19765e-08
-4.90496e-07
-4.11317e-08
-4.49892e-07
-4.03199e-08
-4.10014e-07
-3.95604e-08
-3.70809e-07
-3.88595e-08
-3.32196e-07
-3.82349e-08
-2.94109e-07
-3.76865e-08
-2.56439e-07
-3.72394e-08
-2.19095e-07
-3.68963e-08
-1.81959e-07
-3.66637e-08
-1.44915e-07
-3.65596e-08
-1.07783e-07
-3.66277e-08
-7.04713e-08
-3.68031e-08
-3.293e-08
-3.70187e-08
4.76173e-09
-3.71722e-08
4.24014e-08
-3.71142e-08
7.99959e-08
-3.70893e-08
1.18045e-07
-3.75516e-08
1.57082e-07
-3.8568e-08
1.97567e-07
-4.00245e-08
2.39829e-07
-4.18333e-08
2.84142e-07
-4.38958e-08
3.30665e-07
-4.61398e-08
3.79499e-07
-4.84666e-08
4.30542e-07
-5.07152e-08
4.83405e-07
-5.25558e-08
5.37049e-07
-5.33806e-08
5.88732e-07
-5.14439e-08
6.32354e-07
-4.34178e-08
2.17359e-09
6.30374e-07
7.96987e-09
-2.28546e-08
8.0183e-09
-1.37624e-08
3.28244e-09
-2.46277e-09
-4.69844e-09
7.83806e-09
-1.54785e-08
1.68477e-08
-2.89886e-08
2.44263e-08
-4.51026e-08
3.05694e-08
-6.35625e-08
3.54237e-08
-8.4027e-08
3.92262e-08
-1.06188e-07
4.22319e-08
-1.29781e-07
4.46696e-08
-1.54614e-07
4.67213e-08
-1.80546e-07
4.85213e-08
-2.07505e-07
5.01653e-08
-2.3545e-07
5.17221e-08
-2.64392e-07
5.32442e-08
-2.94356e-07
5.47764e-08
-3.25395e-07
5.63586e-08
-3.57558e-07
5.80274e-08
-3.90913e-07
5.98205e-08
-4.2551e-07
6.17791e-08
-4.61396e-07
6.39262e-08
-4.98589e-07
6.62222e-08
-5.36984e-07
6.85611e-08
-5.76189e-07
7.07528e-08
-6.16877e-07
7.23102e-08
-6.60628e-07
7.3192e-08
-7.06179e-07
7.45554e-08
-7.51414e-07
7.68646e-08
-7.96537e-07
7.96852e-08
-8.40657e-07
8.2689e-08
-8.80637e-07
8.51834e-08
-9.23137e-07
8.53312e-08
-9.69568e-07
8.44877e-08
-1.0115e-06
8.51837e-08
-1.05272e-06
8.48807e-08
-1.09639e-06
8.37188e-08
-1.14006e-06
8.32725e-08
-1.18153e-06
8.35551e-08
-1.22256e-06
8.35238e-08
-1.26317e-06
8.33303e-08
-1.30335e-06
8.30717e-08
-1.34313e-06
8.27736e-08
-1.38257e-06
8.24426e-08
-1.42167e-06
8.20809e-08
-1.46046e-06
8.16918e-08
-1.49894e-06
8.12788e-08
-1.53712e-06
8.08447e-08
-1.575e-06
8.03906e-08
-1.61258e-06
7.99167e-08
-1.64983e-06
7.94217e-08
-1.68677e-06
7.89037e-08
-1.72336e-06
7.83601e-08
-1.75961e-06
7.77877e-08
-1.79548e-06
7.71828e-08
-1.83098e-06
7.65415e-08
-1.86607e-06
7.58598e-08
-1.90073e-06
7.51341e-08
-1.93494e-06
7.43599e-08
-1.96867e-06
7.35337e-08
-2.0019e-06
7.26516e-08
-2.0346e-06
7.17102e-08
-2.06674e-06
7.07058e-08
-2.09828e-06
6.96352e-08
-2.12919e-06
6.8495e-08
-2.15945e-06
6.72825e-08
-2.18901e-06
6.59948e-08
-2.21784e-06
6.46298e-08
-2.2459e-06
6.3185e-08
-2.27317e-06
6.16586e-08
-2.29958e-06
6.00485e-08
-2.32512e-06
5.8353e-08
-2.34974e-06
5.65707e-08
-2.3734e-06
5.46998e-08
-2.39606e-06
5.27394e-08
-2.41769e-06
5.06885e-08
-2.43823e-06
4.85467e-08
-2.45765e-06
4.63133e-08
-2.47591e-06
4.39879e-08
-2.49297e-06
4.15694e-08
-2.50878e-06
3.90576e-08
-2.52331e-06
3.64514e-08
-2.53651e-06
3.37504e-08
-2.54835e-06
3.09535e-08
-2.55879e-06
2.80603e-08
-2.56779e-06
2.50699e-08
-2.57532e-06
2.1982e-08
-2.58136e-06
1.87961e-08
-2.58588e-06
1.55131e-08
-2.58888e-06
1.21346e-08
-2.59039e-06
8.66984e-09
-2.59045e-06
5.14356e-09
-2.58918e-06
1.59761e-09
-2.58664e-06
-1.92819e-09
-2.58267e-06
-5.44824e-09
-2.57704e-06
-8.99924e-09
-2.56968e-06
-1.25842e-08
-2.56054e-06
-1.62004e-08
-2.5496e-06
-1.98475e-08
-2.53684e-06
-2.3522e-08
-2.52226e-06
-2.72178e-08
-2.50584e-06
-3.09284e-08
-2.48758e-06
-3.46458e-08
-2.46749e-06
-3.83625e-08
-2.44556e-06
-4.20703e-08
-2.4218e-06
-4.57612e-08
-2.39624e-06
-4.94262e-08
-2.36889e-06
-5.30564e-08
-2.33977e-06
-5.66419e-08
-2.30891e-06
-6.01728e-08
-2.27635e-06
-6.36389e-08
-2.24212e-06
-6.70296e-08
-2.20628e-06
-7.03346e-08
-2.16886e-06
-7.35429e-08
-2.12993e-06
-7.66446e-08
-2.08954e-06
-7.9629e-08
-2.04776e-06
-8.24869e-08
-2.00467e-06
-8.52086e-08
-1.96032e-06
-8.77852e-08
-1.91479e-06
-9.02056e-08
-1.86817e-06
-9.24647e-08
-1.82053e-06
-9.45601e-08
-1.77196e-06
-9.64971e-08
-1.72255e-06
-9.82668e-08
-1.6724e-06
-9.98545e-08
-1.6216e-06
-1.0126e-07
-1.57024e-06
-1.02497e-07
-1.51841e-06
-1.03553e-07
-1.46621e-06
-1.04424e-07
-1.41372e-06
-1.051e-07
-1.36105e-06
-1.05585e-07
-1.30829e-06
-1.05871e-07
-1.25553e-06
-1.05964e-07
-1.20287e-06
-1.05861e-07
-1.1504e-06
-1.05569e-07
-1.0982e-06
-1.0509e-07
-1.04635e-06
-1.04431e-07
-9.94933e-07
-1.03591e-07
-9.44012e-07
-1.02581e-07
-8.93656e-07
-1.01411e-07
-8.43935e-07
-1.0011e-07
-7.94901e-07
-9.86965e-08
-7.46604e-07
-9.71967e-08
-6.99077e-07
-9.56161e-08
-6.5235e-07
-9.39753e-08
-6.06438e-07
-9.2281e-08
-5.61356e-07
-9.05607e-08
-5.17101e-07
-8.88223e-08
-4.73667e-07
-8.70943e-08
-4.3103e-07
-8.53844e-08
-3.89167e-07
-8.3727e-08
-3.4803e-07
-8.21311e-08
-3.07575e-07
-8.06303e-08
-2.67733e-07
-7.9233e-08
-2.28434e-07
-7.79823e-08
-1.89586e-07
-7.68841e-08
-1.51095e-07
-7.59738e-08
-1.1284e-07
-7.52688e-08
-7.46998e-08
-7.48098e-08
-3.65348e-08
-7.45831e-08
1.76408e-09
-7.46152e-08
4.0282e-08
-7.48872e-08
7.91449e-08
-7.54148e-08
1.18618e-07
-7.62312e-08
1.59022e-07
-7.73265e-08
2.00761e-07
-7.85967e-08
2.4409e-07
-8.01736e-08
2.89101e-07
-8.23152e-08
3.3591e-07
-8.51419e-08
3.84719e-07
-8.85984e-08
4.357e-07
-9.25925e-08
4.88997e-07
-9.69753e-08
5.44659e-07
-1.01598e-07
6.02625e-07
-1.06237e-07
6.62632e-07
-1.10543e-07
7.24151e-07
-1.13909e-07
7.85979e-07
-1.15062e-07
8.46368e-07
-1.11703e-07
8.99916e-07
-9.68528e-08
-4.76566e-08
9.49848e-07
-3.4386e-09
-1.94274e-08
-1.29154e-08
-4.2973e-09
-2.47104e-08
9.32536e-09
-3.80191e-08
2.11408e-08
-5.2685e-08
3.1509e-08
-6.88021e-08
4.05382e-08
-8.65118e-08
4.8275e-08
-1.05897e-07
5.48043e-08
-1.26949e-07
6.02737e-08
-1.49593e-07
6.48712e-08
-1.7372e-07
6.87931e-08
-1.99224e-07
7.22197e-08
-2.26009e-07
7.53033e-08
-2.54015e-07
7.81661e-08
-2.83199e-07
8.09036e-08
-3.1355e-07
8.35904e-08
-3.45061e-07
8.62855e-08
-3.77742e-07
8.9035e-08
-4.1159e-07
9.18733e-08
-4.46594e-07
9.48212e-08
-4.82696e-07
9.78793e-08
-5.19786e-07
1.01013e-07
-5.57711e-07
1.04146e-07
-5.96307e-07
1.07156e-07
-6.35434e-07
1.09879e-07
-6.7528e-07
1.12156e-07
-7.16083e-07
1.13994e-07
-7.57287e-07
1.15758e-07
-7.98023e-07
1.176e-07
-8.37763e-07
1.19422e-07
-8.76148e-07
1.2107e-07
-9.13122e-07
1.22153e-07
-9.50269e-07
1.22475e-07
-9.88083e-07
1.22297e-07
-1.02499e-06
1.2209e-07
-1.06169e-06
1.21577e-07
-1.09887e-06
1.20888e-07
-1.13597e-06
1.20377e-07
-1.17241e-06
1.19992e-07
-1.20841e-06
1.19524e-07
-1.24408e-06
1.18999e-07
-1.27946e-06
1.18444e-07
-1.31456e-06
1.17871e-07
-1.3494e-06
1.17285e-07
-1.38401e-06
1.16684e-07
-1.41838e-06
1.16068e-07
-1.45254e-06
1.15433e-07
-1.48647e-06
1.14779e-07
-1.52018e-06
1.14102e-07
-1.55367e-06
1.13399e-07
-1.58691e-06
1.12668e-07
-1.61991e-06
1.11902e-07
-1.65265e-06
1.11098e-07
-1.68511e-06
1.1025e-07
-1.71728e-06
1.09352e-07
-1.74915e-06
1.084e-07
-1.78067e-06
1.07387e-07
-1.81185e-06
1.06308e-07
-1.84265e-06
1.05157e-07
-1.87305e-06
1.0393e-07
-1.90302e-06
1.0262e-07
-1.93253e-06
1.01223e-07
-1.96156e-06
9.9734e-08
-1.99007e-06
9.81487e-08
-2.01804e-06
9.64624e-08
-2.04543e-06
9.46713e-08
-2.07221e-06
9.27717e-08
-2.09834e-06
9.07602e-08
-2.12379e-06
8.86337e-08
-2.14851e-06
8.63893e-08
-2.17249e-06
8.40244e-08
-2.19567e-06
8.15365e-08
-2.21802e-06
7.89235e-08
-2.2395e-06
7.61835e-08
-2.26008e-06
7.33149e-08
-2.2797e-06
7.03164e-08
-2.29834e-06
6.71874e-08
-2.31595e-06
6.39269e-08
-2.33249e-06
6.05344e-08
-2.34793e-06
5.70093e-08
-2.36222e-06
5.33515e-08
-2.37533e-06
4.9561e-08
-2.38721e-06
4.5638e-08
-2.39783e-06
4.15829e-08
-2.40716e-06
3.73972e-08
-2.41517e-06
3.30825e-08
-2.42182e-06
2.86416e-08
-2.4271e-06
2.40785e-08
-2.43097e-06
1.93991e-08
-2.43344e-06
1.46119e-08
-2.43449e-06
9.73057e-09
-2.43412e-06
4.77616e-09
-2.43229e-06
-2.29409e-10
-2.42893e-06
-5.27865e-09
-2.42398e-06
-1.03927e-08
-2.41739e-06
-1.55868e-08
-2.40912e-06
-2.08528e-08
-2.39914e-06
-2.61804e-08
-2.38742e-06
-3.1561e-08
-2.37395e-06
-3.69847e-08
-2.35872e-06
-4.24415e-08
-2.34172e-06
-4.79199e-08
-2.32295e-06
-5.34085e-08
-2.3024e-06
-5.88953e-08
-2.28009e-06
-6.43679e-08
-2.25602e-06
-6.9814e-08
-2.23021e-06
-7.52198e-08
-2.20267e-06
-8.0572e-08
-2.17344e-06
-8.58552e-08
-2.14253e-06
-9.10553e-08
-2.10999e-06
-9.61562e-08
-2.07586e-06
-1.01143e-07
-2.04017e-06
-1.06e-07
-2.00298e-06
-1.10711e-07
-1.96435e-06
-1.15261e-07
-1.92432e-06
-1.19635e-07
-1.88298e-06
-1.23819e-07
-1.84037e-06
-1.27799e-07
-1.79659e-06
-1.3156e-07
-1.75169e-06
-1.35091e-07
-1.70576e-06
-1.38378e-07
-1.65887e-06
-1.41417e-07
-1.61113e-06
-1.44213e-07
-1.56261e-06
-1.46763e-07
-1.51341e-06
-1.49044e-07
-1.46361e-06
-1.51052e-07
-1.4133e-06
-1.528e-07
-1.36258e-06
-1.54284e-07
-1.31154e-06
-1.5549e-07
-1.26025e-06
-1.56414e-07
-1.20882e-06
-1.57052e-07
-1.15733e-06
-1.57403e-07
-1.10588e-06
-1.57468e-07
-1.05455e-06
-1.5725e-07
-1.00342e-06
-1.56757e-07
-9.52576e-07
-1.55995e-07
-9.0209e-07
-1.54975e-07
-8.5203e-07
-1.53703e-07
-8.02456e-07
-1.52193e-07
-7.5343e-07
-1.50464e-07
-7.05008e-07
-1.48547e-07
-6.57242e-07
-1.46473e-07
-6.10169e-07
-1.44271e-07
-5.6382e-07
-1.41963e-07
-5.18213e-07
-1.39571e-07
-4.73361e-07
-1.37118e-07
-4.29263e-07
-1.34634e-07
-3.85915e-07
-1.32144e-07
-3.43295e-07
-1.29678e-07
-3.01378e-07
-1.27262e-07
-2.60124e-07
-1.24932e-07
-2.19486e-07
-1.22718e-07
-1.79401e-07
-1.20654e-07
-1.398e-07
-1.1877e-07
-1.00597e-07
-1.17113e-07
-6.16973e-08
-1.1571e-07
-2.29914e-08
-1.14598e-07
1.56247e-08
-1.13805e-07
5.42677e-08
-1.13366e-07
9.30866e-08
-1.13319e-07
1.32268e-07
-1.13709e-07
1.72007e-07
-1.14544e-07
2.12517e-07
-1.15839e-07
2.53998e-07
-1.17631e-07
2.96685e-07
-1.1993e-07
3.40879e-07
-1.22712e-07
3.86845e-07
-1.2606e-07
4.34736e-07
-1.30131e-07
4.84674e-07
-1.35004e-07
5.3679e-07
-1.40642e-07
5.91197e-07
-1.46928e-07
6.47974e-07
-1.53684e-07
7.07116e-07
-1.60673e-07
7.6851e-07
-1.67568e-07
8.31879e-07
-1.73851e-07
8.96701e-07
-1.78675e-07
9.62089e-07
-1.80398e-07
1.02675e-06
-1.76315e-07
1.08916e-06
-1.59222e-07
-1.13792e-07
1.15535e-06
-1.22169e-08
-7.21974e-09
-2.78623e-08
1.13395e-08
-4.44634e-08
2.59215e-08
-6.16491e-08
3.8322e-08
-7.94404e-08
4.92967e-08
-9.79895e-08
5.90833e-08
-1.17485e-07
6.77676e-08
-1.38099e-07
7.54139e-08
-1.59944e-07
8.21152e-08
-1.83075e-07
8.79979e-08
-2.07493e-07
9.32082e-08
-2.33171e-07
9.78939e-08
-2.60062e-07
1.02192e-07
-2.88118e-07
1.06218e-07
-3.17287e-07
1.1007e-07
-3.47521e-07
1.13821e-07
-3.78762e-07
1.17525e-07
-4.10949e-07
1.21218e-07
-4.43995e-07
1.24918e-07
-4.77799e-07
1.28621e-07
-5.12219e-07
1.32298e-07
-5.47098e-07
1.3589e-07
-5.82264e-07
1.39312e-07
-6.17571e-07
1.42461e-07
-6.52926e-07
1.45234e-07
-6.88325e-07
1.47555e-07
-7.23777e-07
1.49446e-07
-7.59064e-07
1.51044e-07
-7.93907e-07
1.52441e-07
-8.28116e-07
1.5363e-07
-8.61596e-07
1.54549e-07
-8.94545e-07
1.55098e-07
-9.2734e-07
1.55268e-07
-9.60169e-07
1.55123e-07
-9.92831e-07
1.54749e-07
-1.02542e-06
1.54163e-07
-1.058e-06
1.5347e-07
-1.09043e-06
1.52796e-07
-1.12259e-06
1.52152e-07
-1.15455e-06
1.51485e-07
-1.18635e-06
1.50793e-07
-1.21799e-06
1.50082e-07
-1.24947e-06
1.49357e-07
-1.28081e-06
1.4862e-07
-1.31199e-06
1.47871e-07
-1.34303e-06
1.47106e-07
-1.37392e-06
1.46323e-07
-1.40466e-06
1.45517e-07
-1.43524e-06
1.44682e-07
-1.46566e-06
1.43813e-07
-1.49589e-06
1.42904e-07
-1.52594e-06
1.41949e-07
-1.55579e-06
1.40941e-07
-1.58541e-06
1.39874e-07
-1.6148e-06
1.38739e-07
-1.64393e-06
1.3753e-07
-1.67278e-06
1.36239e-07
-1.70134e-06
1.3486e-07
-1.72957e-06
1.33386e-07
-1.75745e-06
1.3181e-07
-1.78495e-06
1.30125e-07
-1.81206e-06
1.28326e-07
-1.83873e-06
1.26406e-07
-1.86494e-06
1.24359e-07
-1.89066e-06
1.2218e-07
-1.91585e-06
1.19864e-07
-1.94049e-06
1.17407e-07
-1.96453e-06
1.14804e-07
-1.98795e-06
1.12051e-07
-2.0107e-06
1.09144e-07
-2.03276e-06
1.0608e-07
-2.05408e-06
1.02857e-07
-2.07462e-06
9.94708e-08
-2.09436e-06
9.59197e-08
-2.11324e-06
9.22017e-08
-2.13124e-06
8.83152e-08
-2.14831e-06
8.42592e-08
-2.16441e-06
8.00326e-08
-2.17951e-06
7.56352e-08
-2.19356e-06
7.10665e-08
-2.20653e-06
6.63268e-08
-2.21839e-06
6.14167e-08
-2.22908e-06
5.63374e-08
-2.23858e-06
5.10904e-08
-2.24686e-06
4.56784e-08
-2.25388e-06
4.01048e-08
-2.25961e-06
3.43741e-08
-2.26401e-06
2.84923e-08
-2.26708e-06
2.24672e-08
-2.26877e-06
1.63083e-08
-2.26906e-06
1.00273e-08
-2.26791e-06
3.63811e-09
-2.26529e-06
-2.84845e-09
-2.26114e-06
-9.43118e-09
-2.25541e-06
-1.61186e-08
-2.24808e-06
-2.29129e-08
-2.23913e-06
-2.9805e-08
-2.22853e-06
-3.6782e-08
-2.21625e-06
-4.38311e-08
-2.2023e-06
-5.09383e-08
-2.18664e-06
-5.80895e-08
-2.16929e-06
-6.52694e-08
-2.15022e-06
-7.24624e-08
-2.12945e-06
-7.96526e-08
-2.10698e-06
-8.68233e-08
-2.08283e-06
-9.39577e-08
-2.05699e-06
-1.01038e-07
-2.0295e-06
-1.08045e-07
-2.00038e-06
-1.14959e-07
-1.96966e-06
-1.21762e-07
-1.93736e-06
-1.28431e-07
-1.90354e-06
-1.34948e-07
-1.86823e-06
-1.41291e-07
-1.83149e-06
-1.47441e-07
-1.79336e-06
-1.53375e-07
-1.75391e-06
-1.59075e-07
-1.71319e-06