/*--------------------------------*- C++ -*----------------------------------*\
  =========                 |
  \\      /  F ield         | OpenFOAM: The Open Source CFD Toolbox
   \\    /   O peration     | Website:  https://openfoam.org
    \\  /    A nd           | Version:  8
     \\/     M anipulation  |
\*---------------------------------------------------------------------------*/
FoamFile
{
    version     2.0;
    format      ascii;
    class       volVectorField;
    location    "200";
    object      U;
}
// * * * * * * * * * * * * * * * * * * * * * * * * * * * * * * * * * * * * * //

dimensions      [0 1 -1 0 0 0 0];

internalField   nonuniform List<vector> 
12225
(
(9.85697 -0.886445 0)
(9.66664 -0.740745 0)
(9.4557 -0.429481 0)
(9.22451 -0.222211 0)
(9.00645 -0.106454 0)
(8.81432 -0.0458637 0)
(8.64739 -0.01517 0)
(8.50519 0.000457268 0)
(8.38346 0.00839639 0)
(8.28066 0.0122887 0)
(8.19216 0.014009 0)
(8.1159 0.0150299 0)
(8.04899 0.0154393 0)
(7.98977 0.0156358 0)
(7.93618 0.0156621 0)
(7.88947 0.0156281 0)
(7.83426 0.0171894 0)
(7.82455 0.0124022 0)
(10.0545 0.227567 0)
(10.121 0.326913 0)
(10.1196 0.261574 0)
(10.0856 0.186545 0)
(10.0434 0.134674 0)
(9.9967 0.101122 0)
(9.94398 0.0792976 0)
(9.8852 0.0645794 0)
(9.82383 0.0542779 0)
(9.76127 0.0466977 0)
(9.69978 0.0409416 0)
(9.6399 0.0364031 0)
(9.58254 0.0327696 0)
(9.52806 0.0299443 0)
(9.47607 0.0275626 0)
(9.42836 0.0268759 0)
(9.38044 0.0240076 0)
(9.34661 0.0337477 0)
(10.0035 0.0579192 0)
(10.0303 0.0560099 0)
(10.0561 0.0337851 0)
(10.0703 0.0329041 0)
(10.077 0.040656 0)
(10.0778 0.0465568 0)
(10.0725 0.0493748 0)
(10.0613 0.0503252 0)
(10.0461 0.0502309 0)
(10.0276 0.0495278 0)
(10.0071 0.0484996 0)
(9.98481 0.047359 0)
(9.96161 0.0462089 0)
(9.93789 0.0451967 0)
(9.91386 0.0442148 0)
(9.89033 0.0439991 0)
(9.86682 0.0434532 0)
(9.84501 0.0462038 0)
(9.99779 0.0110548 0)
(10.011 0.0266122 0)
(10.035 0.0371575 0)
(10.0525 0.0480956 0)
(10.0643 0.0554659 0)
(10.0734 0.0582023 0)
(10.0795 0.0583778 0)
(10.0823 0.0576434 0)
(10.0827 0.0566053 0)
(10.0811 0.0554242 0)
(10.078 0.0541739 0)
(10.0736 0.0529761 0)
(10.0682 0.0518322 0)
(10.062 0.0508578 0)
(10.0551 0.0499705 0)
(10.0481 0.0496003 0)
(10.0409 0.0491439 0)
(10.034 0.0499517 0)
(9.99935 0.00719967 0)
(10.009 0.0316597 0)
(10.0275 0.0439312 0)
(10.0418 0.0499358 0)
(10.0528 0.0536293 0)
(10.0628 0.0552593 0)
(10.0715 0.0555465 0)
(10.0783 0.0552664 0)
(10.0834 0.0547363 0)
(10.0872 0.0540508 0)
(10.0899 0.0532678 0)
(10.0918 0.0524868 0)
(10.0929 0.0517295 0)
(10.0935 0.0510824 0)
(10.0936 0.0505154 0)
(10.0935 0.0502456 0)
(10.0933 0.049993 0)
(10.0934 0.0501271 0)
(10.0003 0.00918043 0)
(10.0083 0.0311764 0)
(10.0227 0.0409546 0)
(10.0349 0.0454086 0)
(10.045 0.0490588 0)
(10.0547 0.0514004 0)
(10.0637 0.0523898 0)
(10.0713 0.0526342 0)
(10.0778 0.0525154 0)
(10.0833 0.0521731 0)
(10.0881 0.0516866 0)
(10.0923 0.0511478 0)
(10.0959 0.0505982 0)
(10.0991 0.0501018 0)
(10.1019 0.0496548 0)
(10.1045 0.0493527 0)
(10.1072 0.0490633 0)
(10.11 0.0487876 0)
(10.0005 0.00894734 0)
(10.0071 0.0270931 0)
(10.0191 0.0364258 0)
(10.0302 0.0414086 0)
(10.0396 0.0454382 0)
(10.0486 0.0481107 0)
(10.0572 0.0493889 0)
(10.0649 0.0498706 0)
(10.0716 0.0499598 0)
(10.0777 0.0498045 0)
(10.0832 0.0494856 0)
(10.0882 0.0490842 0)
(10.0928 0.048649 0)
(10.097 0.0482254 0)
(10.101 0.0478183 0)
(10.1049 0.0474598 0)
(10.1087 0.0470705 0)
(10.1126 0.0465527 0)
(10.0004 0.00791902 0)
(10.006 0.0233883 0)
(10.0161 0.0327502 0)
(10.0263 0.038122 0)
(10.0351 0.0421237 0)
(10.0436 0.0448146 0)
(10.0517 0.0462352 0)
(10.0591 0.0468814 0)
(10.0659 0.0471198 0)
(10.072 0.0470973 0)
(10.0778 0.0468953 0)
(10.0831 0.046587 0)
(10.088 0.0462226 0)
(10.0927 0.0458354 0)
(10.0972 0.0454311 0)
(10.1016 0.0450107 0)
(10.1059 0.0445159 0)
(10.1103 0.0438462 0)
(10.0004 0.00696383 0)
(10.0051 0.0204374 0)
(10.0137 0.0294705 0)
(10.0229 0.0348847 0)
(10.0312 0.0387428 0)
(10.0391 0.0414128 0)
(10.0468 0.0429549 0)
(10.054 0.0437415 0)
(10.0606 0.0440976 0)
(10.0667 0.0441751 0)
(10.0724 0.0440573 0)
(10.0778 0.0438125 0)
(10.0829 0.0434887 0)
(10.0878 0.0431128 0)
(10.0924 0.0426891 0)
(10.097 0.0422065 0)
(10.1015 0.041618 0)
(10.106 0.0408499 0)
(10.0004 0.00613344 0)
(10.0043 0.0178733 0)
(10.0116 0.0262948 0)
(10.0199 0.0316077 0)
(10.0276 0.0353402 0)
(10.0351 0.0379752 0)
(10.0424 0.0395975 0)
(10.0493 0.0404877 0)
(10.0557 0.0409311 0)
(10.0617 0.0410822 0)
(10.0673 0.0410248 0)
(10.0727 0.0408225 0)
(10.0778 0.04052 0)
(10.0827 0.040141 0)
(10.0874 0.039689 0)
(10.092 0.0391508 0)
(10.0965 0.0384896 0)
(10.1009 0.0376614 0)
(10.0003 0.00537391 0)
(10.0037 0.0155651 0)
(10.0099 0.0232586 0)
(10.0173 0.0283745 0)
(10.0245 0.0319655 0)
(10.0315 0.0345243 0)
(10.0384 0.0361721 0)
(10.0449 0.0371267 0)
(10.0511 0.0376308 0)
(10.057 0.037834 0)
(10.0625 0.0378191 0)
(10.0678 0.0376446 0)
(10.0729 0.0373522 0)
(10.0777 0.0369639 0)
(10.0824 0.0364839 0)
(10.0869 0.0359017 0)
(10.0913 0.0351911 0)
(10.0957 0.0343318 0)
(10.0003 0.00470906 0)
(10.0032 0.0136249 0)
(10.0086 0.0206136 0)
(10.0152 0.0254648 0)
(10.0219 0.0288902 0)
(10.0285 0.0313438 0)
(10.035 0.0329728 0)
(10.0413 0.0339537 0)
(10.0473 0.0344912 0)
(10.053 0.0347246 0)
(10.0584 0.0347344 0)
(10.0636 0.0345753 0)
(10.0686 0.0342859 0)
(10.0734 0.0338875 0)
(10.078 0.033386 0)
(10.0824 0.0327756 0)
(10.0867 0.0320385 0)
(10.0909 0.0311729 0)
(10.0003 0.00409453 0)
(10.0028 0.0118565 0)
(10.0075 0.0181156 0)
(10.0134 0.0226256 0)
(10.0197 0.0258509 0)
(10.0259 0.0281736 0)
(10.032 0.0297508 0)
(10.0381 0.0307307 0)
(10.0438 0.0312826 0)
(10.0494 0.0315323 0)
(10.0547 0.0315564 0)
(10.0597 0.0314062 0)
(10.0646 0.0311173 0)
(10.0693 0.0307108 0)
(10.0738 0.0301949 0)
(10.0781 0.0295683 0)
(10.0823 0.0288208 0)
(10.0863 0.0279638 0)
(10.0002 0.00345975 0)
(10.0024 0.0100185 0)
(10.0064 0.015436 0)
(10.0117 0.0194799 0)
(10.0174 0.0224213 0)
(10.0232 0.0245532 0)
(10.029 0.0260276 0)
(10.0347 0.0269684 0)
(10.0403 0.0275093 0)
(10.0456 0.0277579 0)
(10.0507 0.0277847 0)
(10.0557 0.0276363 0)
(10.0604 0.0273455 0)
(10.0649 0.026933 0)
(10.0693 0.026409 0)
(10.0735 0.0257775 0)
(10.0776 0.0250348 0)
(10.0814 0.0242021 0)
(10.0002 0.00280063 0)
(10.002 0.00810919 0)
(10.0055 0.0125847 0)
(10.0101 0.0160326 0)
(10.0153 0.0185879 0)
(10.0206 0.0204532 0)
(10.026 0.0217604 0)
(10.0314 0.0226098 0)
(10.0367 0.0231024 0)
(10.0418 0.0233243 0)
(10.0468 0.0233363 0)
(10.0515 0.0231798 0)
(10.0561 0.0228838 0)
(10.0605 0.0224682 0)
(10.0647 0.0219451 0)
(10.0688 0.0213226 0)
(10.0727 0.0206023 0)
(10.0764 0.0198113 0)
(10.0002 0.00211646 0)
(10.0017 0.00613058 0)
(10.0047 0.00957009 0)
(10.0087 0.0122881 0)
(10.0134 0.0143378 0)
(10.0183 0.0158435 0)
(10.0233 0.016904 0)
(10.0283 0.0175954 0)
(10.0333 0.0179891 0)
(10.0382 0.0181485 0)
(10.0429 0.0181218 0)
(10.0475 0.017943 0)
(10.0519 0.0176367 0)
(10.0562 0.0172209 0)
(10.0602 0.0167083 0)
(10.0641 0.0161093 0)
(10.0678 0.0154287 0)
(10.0713 0.0146955 0)
(10.0002 0.00140418 0)
(10.0015 0.00406836 0)
(10.0041 0.0063755 0)
(10.0076 0.00822887 0)
(10.0118 0.0096419 0)
(10.0163 0.010679 0)
(10.0209 0.011401 0)
(10.0257 0.0118567 0)
(10.0304 0.0120908 0)
(10.035 0.012144 0)
(10.0395 0.0120491 0)
(10.0439 0.0118304 0)
(10.0481 0.0115067 0)
(10.0522 0.0110922 0)
(10.0561 0.0105985 0)
(10.0598 0.0100356 0)
(10.0633 0.00940923 0)
(10.0667 0.00874697 0)
(10.0001 0.000647243 0)
(10.0013 0.00187041 0)
(10.0036 0.0029283 0)
(10.0069 0.00377424 0)
(10.0107 0.00440866 0)
(10.0149 0.00485408 0)
(10.0192 0.0051334 0)
(10.0237 0.00526643 0)
(10.0281 0.00527235 0)
(10.0326 0.00516918 0)
(10.0369 0.00497211 0)
(10.0411 0.0046934 0)
(10.0451 0.00434312 0)
(10.049 0.00392995 0)
(10.0527 0.00346151 0)
(10.0563 0.0029453 0)
(10.0597 0.00238567 0)
(10.0629 0.00180612 0)
(10.0001 -0.000197582 0)
(10.0013 -0.000585556 0)
(10.0035 -0.00094523 0)
(10.0066 -0.00126882 0)
(10.0103 -0.00155584 0)
(10.0143 -0.00182024 0)
(10.0185 -0.00207985 0)
(10.0228 -0.00234689 0)
(10.0272 -0.00262879 0)
(10.0314 -0.00293136 0)
(10.0356 -0.00325907 0)
(10.0397 -0.00361455 0)
(10.0436 -0.00399863 0)
(10.0473 -0.00441087 0)
(10.0509 -0.00484986 0)
(10.0543 -0.005313 0)
(10.0576 -0.00579927 0)
(10.0607 -0.0062917 0)
(10.0001 -0.00100604 0)
(10.0013 -0.0029425 0)
(10.0037 -0.00466934 0)
(10.007 -0.00610812 0)
(10.0108 -0.00725576 0)
(10.015 -0.00817204 0)
(10.0193 -0.00891838 0)
(10.0237 -0.00953681 0)
(10.0281 -0.0100617 0)
(10.0324 -0.0105247 0)
(10.0365 -0.0109506 0)
(10.0405 -0.0113562 0)
(10.0444 -0.0117528 0)
(10.0481 -0.0121478 0)
(10.0516 -0.0125462 0)
(10.055 -0.0129503 0)
(10.0582 -0.0133625 0)
(10.0612 -0.0137719 0)
(10.0002 -0.00170335 0)
(10.0015 -0.00500107 0)
(10.0041 -0.00792399 0)
(10.0078 -0.0102719 0)
(10.012 -0.0120661 0)
(10.0165 -0.0134566 0)
(10.021 -0.0145496 0)
(10.0256 -0.015402 0)
(10.0301 -0.0160708 0)
(10.0344 -0.0166145 0)
(10.0386 -0.0170778 0)
(10.0427 -0.0174891 0)
(10.0466 -0.0178678 0)
(10.0503 -0.0182276 0)
(10.0538 -0.0185779 0)
(10.0571 -0.018924 0)
(10.0603 -0.0192702 0)
(10.0633 -0.0196095 0)
(10.0002 -0.0023656 0)
(10.0017 -0.00703522 0)
(10.0047 -0.0111758 0)
(10.009 -0.0143431 0)
(10.0137 -0.0166374 0)
(10.0185 -0.018369 0)
(10.0234 -0.0196979 0)
(10.0282 -0.0206951 0)
(10.0329 -0.0214418 0)
(10.0374 -0.0220193 0)
(10.0417 -0.0224842 0)
(10.0458 -0.0228731 0)
(10.0497 -0.0232125 0)
(10.0534 -0.0235218 0)
(10.0569 -0.0238142 0)
(10.0602 -0.0240974 0)
(10.0634 -0.0243768 0)
(10.0664 -0.024648 0)
(10.0002 -0.00298543 0)
(10.0018 -0.00909505 0)
(10.0054 -0.0144495 0)
(10.0105 -0.0183375 0)
(10.0159 -0.0210804 0)
(10.0212 -0.0231015 0)
(10.0263 -0.024556 0)
(10.0314 -0.025569 0)
(10.0363 -0.0262949 0)
(10.041 -0.0268435 0)
(10.0454 -0.0272714 0)
(10.0495 -0.0276142 0)
(10.0535 -0.0279014 0)
(10.0572 -0.0281551 0)
(10.0607 -0.0283897 0)
(10.0641 -0.0286136 0)
(10.0672 -0.0288323 0)
(10.0702 -0.0290432 0)
(10.0001 -0.00353183 0)
(10.0018 -0.0115499 0)
(10.0063 -0.0178861 0)
(10.0123 -0.0219835 0)
(10.0183 -0.0250501 0)
(10.0241 -0.0274591 0)
(10.0297 -0.0290968 0)
(10.0351 -0.0301065 0)
(10.0402 -0.0307586 0)
(10.0449 -0.0312179 0)
(10.0494 -0.0315522 0)
(10.0537 -0.031802 0)
(10.0577 -0.0320011 0)
(10.0614 -0.0321735 0)
(10.065 -0.0323326 0)
(10.0683 -0.0324858 0)
(10.0714 -0.0326367 0)
(10.0744 -0.0327818 0)
(9.99991 -0.0033808 0)
(10.0016 -0.0149673 0)
(10.0073 -0.0227254 0)
(10.0142 -0.0262372 0)
(10.0206 -0.0288242 0)
(10.0269 -0.0311895 0)
(10.0331 -0.0329107 0)
(10.039 -0.0339986 0)
(10.0445 -0.0346982 0)
(10.0495 -0.035162 0)
(10.0541 -0.0354602 0)
(10.0584 -0.0356471 0)
(10.0624 -0.0357689 0)
(10.0661 -0.0358565 0)
(10.0695 -0.0359279 0)
(10.0727 -0.035993 0)
(10.0756 -0.0360567 0)
(10.0783 -0.0361174 0)
(9.9986 -0.000398121 0)
(9.99909 -0.0157559 0)
(10.0075 -0.0274293 0)
(10.0166 -0.0324903 0)
(10.0238 -0.0348668 0)
(10.0306 -0.0362225 0)
(10.0376 -0.0369742 0)
(10.0441 -0.0374408 0)
(10.0499 -0.0377892 0)
(10.055 -0.0380364 0)
(10.0596 -0.0381814 0)
(10.0637 -0.0382496 0)
(10.0672 -0.0382708 0)
(10.0704 -0.0382663 0)
(10.0732 -0.0382513 0)
(10.0756 -0.0382341 0)
(10.0778 -0.0382187 0)
(10.0796 -0.0382031 0)
(9.99488 0.00133556 0)
(9.99288 -0.00809223 0)
(10.006 -0.0203511 0)
(10.0202 -0.032276 0)
(10.0307 -0.0404778 0)
(10.0393 -0.044149 0)
(10.0467 -0.0450611 0)
(10.0529 -0.0449161 0)
(10.0578 -0.0444489 0)
(10.0617 -0.0438531 0)
(10.0647 -0.0432084 0)
(10.0668 -0.0425718 0)
(10.0683 -0.0419775 0)
(10.0691 -0.0414337 0)
(10.0695 -0.0409502 0)
(10.0693 -0.0405233 0)
(10.0689 -0.0401503 0)
(10.0681 -0.0398058 0)
(9.99473 -0.0305614 0)
(9.99925 -0.0228716 0)
(10.0147 -0.00263503 0)
(10.0304 -0.00190892 0)
(10.0434 -0.0116581 0)
(10.0533 -0.0209215 0)
(10.0594 -0.0272782 0)
(10.0619 -0.0315057 0)
(10.0615 -0.0342803 0)
(10.0591 -0.0359764 0)
(10.0551 -0.0369081 0)
(10.0498 -0.0373417 0)
(10.0435 -0.0374674 0)
(10.0365 -0.037405 0)
(10.029 -0.037245 0)
(10.021 -0.0370426 0)
(10.0129 -0.0368626 0)
(10.0047 -0.0366739 0)
(10.0273 -0.182758 0)
(10.0763 -0.288313 0)
(10.0872 -0.247755 0)
(10.0777 -0.186519 0)
(10.0664 -0.140296 0)
(10.0538 -0.108221 0)
(10.0365 -0.0858809 0)
(10.0145 -0.0704206 0)
(9.9894 -0.0596515 0)
(9.96237 -0.0518774 0)
(9.9344 -0.0460551 0)
(9.90609 -0.0415575 0)
(9.87792 -0.0380016 0)
(9.85022 -0.0351268 0)
(9.82323 -0.0327607 0)
(9.79707 -0.0308402 0)
(9.77198 -0.0293242 0)
(9.74799 -0.0285056 0)
(9.93574 0.689319 0)
(9.86861 0.609605 0)
(9.76454 0.380623 0)
(9.62665 0.217442 0)
(9.4859 0.119268 0)
(9.35722 0.0631872 0)
(9.2427 0.0315759 0)
(9.14116 0.0136164 0)
(9.05148 0.00326342 0)
(8.97251 -0.00279779 0)
(8.90262 -0.00635333 0)
(8.84045 -0.00847259 0)
(8.78475 -0.00972349 0)
(8.73465 -0.0104697 0)
(8.68923 -0.0109731 0)
(8.64789 -0.0112428 0)
(8.6097 -0.0114501 0)
(8.57436 -0.0121111 0)
(0.00706464 -0.0162477 -8.39777e-19)
(0.0206539 -0.0199309 6.40792e-19)
(0.0297003 -0.0129511 0)
(0.0330942 -0.00330118 0)
(0.0302247 0.00539997 0)
(0.0223922 0.0118603 -2.87309e-19)
(0.0108609 0.0161086 0)
(-0.00330957 0.0186553 0)
(-0.0193339 0.0200929 0)
(-0.0367108 0.0209011 0)
(-0.0551057 0.0213907 1.56546e-19)
(-0.0743074 0.0217324 0)
(-0.0941873 0.0220119 0)
(-0.114663 0.0222646 0)
(-0.13568 0.0225077 0)
(-0.157203 0.0227568 1.02787e-19)
(-0.179204 0.0230402 0)
(-0.201664 0.0234002 0)
(-0.224613 0.0238923 0)
(-0.248133 0.0245979 0)
(-0.272295 0.0256519 0)
(-0.297163 0.0271459 0)
(-0.322921 0.0289183 0)
(-0.349708 0.0309145 7.93269e-20)
(-0.377347 0.0330244 -7.867e-20)
(-0.405621 0.0298696 7.70688e-20)
(-0.4341 0.0195105 7.44058e-20)
(-0.460436 0.0166129 0)
(-0.486885 0.0250278 0)
(-0.517478 0.0356772 -6.63861e-20)
(-0.550381 0.0510048 -6.43885e-20)
(-0.586105 0.0723482 0)
(-0.626358 0.0593501 0)
(-0.667174 0.0344798 -9.32875e-20)
(-0.702477 0.0437423 0)
(-0.742682 0.0410245 0)
(-0.781496 0.0275774 7.98112e-20)
(-0.817482 0.0262624 0)
(-0.853097 0.0343674 7.5123e-20)
(-0.892542 0.0351845 1.4551e-19)
(-0.931711 0.0352936 0)
(-0.971093 0.0352206 0)
(-1.01058 0.0351232 0)
(-1.05017 0.0349644 0)
(-1.0898 0.0347629 0)
(-1.12943 0.0345238 1.21669e-19)
(-1.16902 0.0342613 1.18495e-19)
(-1.20856 0.0339823 1.15506e-19)
(-1.24802 0.0336922 0)
(-1.2874 0.0333947 -1.1003e-19)
(-1.32668 0.0330907 0)
(-1.36584 0.0327815 1.05131e-19)
(-1.40489 0.0324667 1.0287e-19)
(-1.44379 0.0321461 0)
(-1.48255 0.0318181 0)
(-1.52114 0.0314816 0)
(-1.55955 0.0311351 9.48599e-20)
(-1.59776 0.0307775 0)
(-1.63574 0.0304067 0)
(-1.67348 0.0300216 0)
(-1.71095 0.0296207 0)
(-1.74811 0.0292029 0)
(-1.78495 0.0287664 0)
(-1.82143 0.0283103 0)
(-1.85751 0.0278332 0)
(-1.89317 0.0273342 -8.11507e-20)
(-1.92836 0.0268124 0)
(-1.96304 0.0262673 0)
(-1.99719 0.0256983 7.74723e-20)
(-2.03075 0.0251048 7.63158e-20)
(-2.06369 0.0244865 0)
(-2.09596 0.0238427 -7.40921e-20)
(-2.12751 0.0231734 7.302e-20)
(-2.15831 0.0224781 0)
(-2.1883 0.0217568 -7.09422e-20)
(-2.21744 0.0210093 0)
(-2.24568 0.0202362 0)
(-2.27297 0.019437 6.79605e-20)
(-2.29925 0.0186115 0)
(-2.32449 0.0177586 -6.60391e-20)
(-2.34863 0.0168776 0)
(-2.37162 0.0159666 6.41523e-20)
(-2.3934 0.015023 6.32174e-20)
(-2.41393 0.0140428 6.22853e-20)
(-2.43314 0.0130214 1.2271e-19)
(-2.45097 0.0119518 -1.20848e-19)
(-2.46737 0.0108266 0)
(-2.48226 0.00963712 0)
(-2.49556 0.00837668 0)
(-2.50721 0.00704337 -1.13331e-19)
(-2.51711 0.00564795 -1.11425e-19)
(-2.52517 0.00422387 1.09509e-19)
(-2.53127 0.00281857 0)
(-2.53525 0.00147662 -1.05639e-19)
(-2.53703 0.000271472 -1.03615e-19)
(-2.53713 -0.000820149 -1.01546e-19)
(-2.53547 -0.00188564 0)
(-2.5321 -0.00294443 0)
(-2.52699 -0.00400609 0)
(-2.52014 -0.00507104 -9.27495e-20)
(-2.51153 -0.00613837 0)
(-2.50113 -0.0072073 0)
(-2.48895 -0.0082765 8.54864e-20)
(-2.47497 -0.00934463 0)
(-2.45919 -0.0104103 0)
(-2.4416 -0.0114715 7.75286e-20)
(-2.42222 -0.0125269 0)
(-2.40104 -0.0135736 0)
(-2.37809 -0.0146101 -6.87642e-20)
(-2.35337 -0.0156329 -6.56448e-20)
(-2.32692 -0.0166404 0)
(-2.29876 -0.0176286 5.90857e-20)
(-2.26892 -0.0185963 0)
(-2.23744 -0.019539 -5.20761e-20)
(-2.20436 -0.0204559 0)
(-2.16973 -0.021342 -4.45891e-20)
(-2.1336 -0.0221962 -4.06591e-20)
(-2.09604 -0.0230132 0)
(-2.05709 -0.0237918 0)
(-2.01684 -0.0245243 0)
(-1.97533 -0.0252187 0)
(-1.93263 -0.0258794 0)
(-1.88883 -0.0264922 0)
(-1.844 -0.0270563 0)
(-1.79823 -0.0275825 -4.41303e-21)
(-1.75161 -0.0280558 -7.46983e-22)
(-1.70423 -0.0284818 0)
(-1.65616 -0.0288551 0)
(-1.6075 -0.0291771 0)
(-1.55832 -0.0294402 0)
(-1.50873 -0.0296475 -5.74056e-20)
(-1.45882 -0.0297929 0)
(-1.40868 -0.0298792 8.17726e-20)
(-1.35841 -0.0299024 -9.4377e-20)
(-1.30809 -0.0298652 0)
(-1.25782 -0.0297652 0)
(-1.20769 -0.0296032 0)
(-1.15777 -0.0293766 1.47519e-19)
(-1.10814 -0.0290859 1.61476e-19)
(-1.05888 -0.028737 0)
(-1.01008 -0.0283366 1.90185e-19)
(-0.961798 -0.0278931 2.04927e-19)
(-0.914094 -0.0274098 -2.1992e-19)
(-0.86701 -0.0268884 0)
(-0.820587 -0.0263298 0)
(-0.774859 -0.0257389 -2.66371e-19)
(-0.729855 -0.0251191 0)
(-0.68559 -0.0244763 0)
(-0.642074 -0.0238139 0)
(-0.599306 -0.0231387 0)
(-0.557276 -0.022456 3.48645e-19)
(-0.515962 -0.0217738 3.65862e-19)
(-0.475333 -0.0210963 0)
(-0.435347 -0.0204324 4.01174e-19)
(-0.395951 -0.01979 0)
(-0.35708 -0.0191787 0)
(-0.318658 -0.0186039 4.56803e-19)
(-0.280598 -0.0180794 0)
(-0.2428 -0.0176155 4.96277e-19)
(-0.205153 -0.0172202 0)
(-0.16754 -0.0169079 0)
(-0.129804 -0.0167078 5.60986e-19)
(-0.0918038 -0.016645 0)
(-0.0534605 -0.0167221 6.09713e-19)
(-0.0146499 -0.0168776 0)
(0.0244768 -0.0168752 0)
(0.063291 -0.0165382 0)
(0.102324 -0.0161768 -6.40348e-19)
(0.14253 -0.01608 0)
(0.184166 -0.0162369 6.12368e-19)
(0.227641 -0.0166077 0)
(0.273284 -0.0171389 0)
(0.321362 -0.0177923 0)
(0.372036 -0.0185285 0)
(0.425376 -0.0192828 0)
(0.481003 -0.0199218 0)
(0.538981 -0.0201633 0)
(0.594324 -0.0194219 -1.03987e-18)
(0.655614 -0.0162235 0)
(0.663013 0.00238461 0)
(0.00454309 -0.0413129 1.88018e-18)
(0.00813551 -0.0314202 -9.8333e-19)
(0.00567057 -0.0132656 0)
(-1.12882e-06 0.00393451 2.97517e-19)
(-0.00827148 0.0187778 0)
(-0.0191121 0.0307001 1.1037e-19)
(-0.0323615 0.0397415 -2.00213e-19)
(-0.0478275 0.0463274 -1.83932e-19)
(-0.065237 0.0510341 0)
(-0.0842965 0.0544153 -1.58412e-19)
(-0.10475 0.0569122 -7.41499e-20)
(-0.126396 0.0588368 0)
(-0.149089 0.0603943 0)
(-0.17274 0.0617138 0)
(-0.1973 0.0628766 0)
(-0.222762 0.0639382 -5.73017e-20)
(-0.249142 0.0649434 0)
(-0.276482 0.0659341 1.06852e-19)
(-0.304847 0.0669534 0)
(-0.334296 0.068055 0)
(-0.364854 0.0693141 -1.00033e-19)
(-0.396564 0.0708026 0)
(-0.429503 0.072521 9.82373e-20)
(-0.463599 0.0744275 -4.90615e-20)
(-0.498501 0.0764553 4.89723e-20)
(-0.534729 0.0781042 -4.85597e-20)
(-0.572994 0.0791413 -4.76443e-20)
(-0.613301 0.0804448 0)
(-0.654586 0.0825147 0)
(-0.695109 0.0846861 4.50595e-20)
(-0.735333 0.0860562 -4.47688e-20)
(-0.773408 0.0872128 0)
(-0.812892 0.0879498 0)
(-0.852734 0.0886911 4.62195e-20)
(-0.892641 0.090773 0)
(-0.930657 0.0914887 0)
(-0.969532 0.0912408 -4.0231e-20)
(-1.00917 0.0911277 0)
(-1.04842 0.0914072 3.79484e-20)
(-1.08638 0.091353 -7.43299e-20)
(-1.12392 0.0909628 0)
(-1.16111 0.0903863 0)
(-1.19799 0.0896761 -1.38618e-19)
(-1.23458 0.0888764 -1.35707e-19)
(-1.27092 0.0880122 -1.32943e-19)
(-1.30702 0.0871033 6.49969e-20)
(-1.3429 0.0861634 -6.40633e-20)
(-1.37855 0.0852023 -1.88286e-19)
(-1.41398 0.0842251 1.23134e-19)
(-1.44918 0.0832355 6.06329e-20)
(-1.48415 0.0822336 0)
(-1.51889 0.0812195 -5.85805e-20)
(-1.55338 0.0801914 5.73016e-20)
(-1.58761 0.0791475 0)
(-1.62156 0.0780845 0)
(-1.65523 0.0769997 0)
(-1.68859 0.0758897 -5.40881e-20)
(-1.72163 0.0747519 0)
(-1.75431 0.0735828 1.04692e-19)
(-1.78663 0.0723796 0)
(-1.81856 0.0711396 1.01699e-19)
(-1.85006 0.0698607 0)
(-1.88112 0.0685402 -9.88659e-20)
(-1.9117 0.0671761 0)
(-1.94178 0.0657664 9.61694e-20)
(-1.97132 0.0643094 -4.7299e-20)
(-2.00029 0.0628039 0)
(-2.02867 0.0612489 -9.23338e-20)
(-2.0564 0.0596437 -4.56752e-20)
(-2.08347 0.0579877 -4.50651e-20)
(-2.10983 0.0562806 0)
(-2.13545 0.0545218 -4.3641e-20)
(-2.16029 0.0527115 -4.32804e-20)
(-2.18431 0.0508494 0)
(-2.20748 0.048936 4.21182e-20)
(-2.22975 0.0469716 -8.28908e-20)
(-2.2511 0.0449575 0)
(-2.27147 0.0428944 -4.0397e-20)
(-2.29083 0.0407834 0)
(-2.30913 0.0386245 1.17605e-19)
(-2.32634 0.0364189 0)
(-2.34242 0.0341669 -1.14179e-19)
(-2.35732 0.0318693 -3.75248e-20)
(-2.37102 0.0295257 3.68328e-20)
(-2.38346 0.0271365 7.25146e-20)
(-2.39461 0.024701 -7.13529e-20)
(-2.40444 0.0222178 0)
(-2.41291 0.0196837 0)
(-2.42 0.0170939 0)
(-2.42569 0.0144403 1.99797e-19)
(-2.43 0.0117175 6.53436e-20)
(-2.43294 0.00893478 -6.40584e-20)
(-2.43458 0.00612908 0)
(-2.43501 0.00336523 -6.14894e-20)
(-2.43433 0.000729782 6.00337e-20)
(-2.43213 -0.00179213 5.86233e-20)
(-2.42833 -0.00427342 0)
(-2.42288 -0.00673116 0)
(-2.41574 -0.00917395 0)
(-2.4069 -0.0116021 5.26912e-20)
(-2.39633 -0.0140124 0)
(-2.38401 -0.0164008 -9.94167e-20)
(-2.36995 -0.0187623 -1.44099e-19)
(-2.35413 -0.0210925 9.29017e-20)
(-2.33655 -0.0233868 0)
(-2.31721 -0.0256404 4.33003e-20)
(-2.29612 -0.0278488 0)
(-2.27328 -0.0300068 7.897e-20)
(-2.24871 -0.0321095 -3.79617e-20)
(-2.22243 -0.0341512 -3.61018e-20)
(-2.19447 -0.0361274 0)
(-2.16485 -0.0380317 -9.52628e-20)
(-2.13361 -0.03986 5.97539e-20)
(-2.10078 -0.0416061 2.74145e-20)
(-2.06642 -0.0432666 0)
(-2.03056 -0.0448353 2.31675e-20)
(-1.99327 -0.0463097 6.39079e-20)
(-1.95461 -0.0476845 0)
(-1.91463 -0.0489576 3.40444e-20)
(-1.8734 -0.0501235 2.94974e-20)
(-1.83099 -0.0511821 2.48806e-20)
(-1.78746 -0.0521348 0)
(-1.74291 -0.0529875 0)
(-1.69741 -0.0537286 0)
(-1.65105 -0.0543547 -3.49002e-21)
(-1.6039 -0.0548734 1.56492e-22)
(-1.55607 -0.0552963 0)
(-1.50763 -0.0556113 9.03836e-21)
(-1.45867 -0.0558197 1.40537e-20)
(-1.40928 -0.0559173 0)
(-1.35955 -0.0559088 2.54217e-20)
(-1.30957 -0.0557907 5.84555e-20)
(-1.25942 -0.0555687 -3.55782e-20)
(-1.20921 -0.0552416 -3.81127e-20)
(-1.15902 -0.0548161 0)
(-1.10894 -0.0542939 0)
(-1.05905 -0.0536805 0)
(-1.00941 -0.0529766 -6.07619e-20)
(-0.960112 -0.0521872 6.3274e-20)
(-0.911209 -0.0513208 1.38826e-19)
(-0.862775 -0.0503921 -7.54637e-20)
(-0.814875 -0.0494147 7.79582e-20)
(-0.76756 -0.0484007 8.49912e-20)
(-0.720871 -0.0473548 0)
(-0.674839 -0.0462851 0)
(-0.62949 -0.045197 -9.66828e-20)
(-0.58484 -0.0441019 0)
(-0.540897 -0.0430062 0)
(-0.497658 -0.041921 2.21526e-19)
(-0.455109 -0.0408522 0)
(-0.413229 -0.0398135 1.18126e-19)
(-0.371984 -0.0388115 -1.23664e-19)
(-0.331329 -0.0378587 0)
(-0.291207 -0.0369608 1.29689e-19)
(-0.25155 -0.0361346 0)
(-0.212278 -0.0353847 0)
(-0.173294 -0.0347233 -1.4128e-19)
(-0.134489 -0.0341603 2.87859e-19)
(-0.0957411 -0.0337135 -1.47488e-19)
(-0.0569151 -0.0333825 0)
(-0.0178623 -0.03318 0)
(0.0215264 -0.0330916 1.54942e-19)
(0.0612752 -0.0330701 0)
(0.101637 -0.033118 1.55799e-19)
(0.142963 -0.0332485 0)
(0.185595 -0.0333828 0)
(0.229897 -0.0335784 0)
(0.276104 -0.034041 1.55223e-19)
(0.324303 -0.0348513 0)
(0.374658 -0.0359624 -1.54792e-19)
(0.427385 -0.0373197 0)
(0.48267 -0.0388491 0)
(0.540659 -0.040484 3.0845e-19)
(0.601363 -0.0421298 -3.08644e-19)
(0.664677 -0.0436431 0)
(0.730124 -0.0447896 0)
(0.797366 -0.0450145 0)
(0.862925 -0.0434138 9.45233e-19)
(0.931334 -0.036609 0)
(0.971381 -0.013363 -6.60657e-19)
(-0.00250491 -0.0432304 -1.02467e-21)
(-0.00767419 -0.0194445 9.37126e-19)
(-0.0164293 0.00430663 0)
(-0.0274098 0.0250692 -3.74233e-19)
(-0.0398699 0.0429756 0)
(-0.0535725 0.0580947 0)
(-0.0686219 0.070516 3.31926e-23)
(-0.0851447 0.0804718 1.16397e-19)
(-0.103181 0.0883323 1.09699e-19)
(-0.122692 0.0945297 1.04134e-19)
(-0.14359 0.0994829 0)
(-0.165778 0.103551 0)
(-0.189164 0.107017 -9.11562e-20)
(-0.21368 0.110094 -1.75574e-19)
(-0.239283 0.112941 1.69616e-19)
(-0.265953 0.115681 0)
(-0.293686 0.11841 1.59825e-19)
(-0.32249 0.121211 -7.79849e-20)
(-0.352379 0.124152 0)
(-0.383354 0.12729 1.49894e-19)
(-0.41538 0.130653 7.38602e-20)
(-0.448382 0.134222 -1.45776e-19)
(-0.48224 0.137916 -7.20058e-20)
(-0.516789 0.141551 0)
(-0.551862 0.144829 1.39547e-19)
(-0.587517 0.147345 1.36623e-19)
(-0.62399 0.149021 0)
(-0.661205 0.150807 1.30121e-19)
(-0.698445 0.153001 0)
(-0.734916 0.15529 1.24433e-19)
(-0.770472 0.157545 6.13759e-20)
(-0.804916 0.158954 0)
(-0.838997 0.158568 0)
(-0.873174 0.157067 0)
(-0.907113 0.155805 0)
(-0.940558 0.153696 0)
(-0.974343 0.151036 0)
(-1.00852 0.149002 1.03314e-19)
(-1.04246 0.14753 -1.51537e-19)
(-1.07583 0.145975 0)
(-1.10886 0.144381 0)
(-1.14165 0.142771 0)
(-1.17422 0.141147 1.48459e-22)
(-1.2066 0.139508 9.13053e-20)
(-1.2388 0.137856 1.79073e-19)
(-1.27084 0.136192 -1.75836e-19)
(-1.30273 0.134518 -8.62841e-20)
(-1.33446 0.132836 8.49635e-20)
(-1.36603 0.131145 -1.70641e-22)
(-1.39745 0.129443 8.1987e-20)
(-1.42871 0.127729 0)
(-1.4598 0.125998 7.93801e-20)
(-1.4907 0.124246 -1.75188e-22)
(-1.5214 0.122469 0)
(-1.5519 0.120662 0)
(-1.58217 0.11882 -7.46622e-20)
(-1.61219 0.116938 0)
(-1.64196 0.115011 0)
(-1.67144 0.113035 7.12999e-20)
(-1.70061 0.111005 1.40927e-19)
(-1.72945 0.108919 -6.96483e-20)
(-1.75794 0.106771 0)
(-1.78605 0.10456 6.77384e-20)
(-1.81375 0.102282 0)
(-1.84101 0.099935 6.55816e-20)
(-1.86781 0.0975164 6.50073e-20)
(-1.8941 0.0950249 -1.27945e-19)
(-1.91987 0.092459 -6.29574e-20)
(-1.94508 0.0898182 0)
(-1.96969 0.0871014 1.22819e-19)
(-1.99366 0.0843085 0)
(-2.01698 0.0814391 1.79371e-19)
(-2.03959 0.0784937 1.17847e-19)
(-2.06146 0.0754722 1.16212e-19)
(-2.08256 0.0723756 -1.14584e-19)
(-2.10284 0.0692047 1.69553e-19)
(-2.12227 0.0659611 0)
(-2.14081 0.0626461 0)
(-2.15843 0.0592612 -1.08098e-19)
(-2.17507 0.0558076 -1.59794e-19)
(-2.19071 0.0522872 0)
(-2.2053 0.0487014 5.16717e-20)
(-2.21881 0.0450522 0)
(-2.2312 0.0413415 -1.49882e-19)
(-2.24244 0.0375719 -9.86247e-23)
(-2.25249 0.0337464 8.22801e-23)
(-2.26131 0.0298688 9.47977e-20)
(-2.26889 0.0259443 0)
(-2.27519 0.0219798 -9.13127e-20)
(-2.28021 0.0179852 -1.04213e-23)
(-2.28393 0.0139752 0)
(-2.28634 0.00997116 0)
(-2.28741 0.00599507 0)
(-2.2871 0.00205776 8.20606e-20)
(-2.28536 -0.0018665 0)
(-2.28209 -0.00579539 0)
(-2.27726 -0.00971642 0)
(-2.27084 -0.0136228 0)
(-2.26278 -0.0175094 0)
(-2.25308 -0.0213702 6.98509e-20)
(-2.24172 -0.0251984 0)
(-2.22867 -0.0289862 6.52244e-20)
(-2.21393 -0.0327257 6.29551e-20)
(-2.1975 -0.0364092 -6.0646e-20)
(-2.17936 -0.0400286 0)
(-2.15953 -0.0435765 -5.59056e-20)
(-2.138 -0.0470443 0)
(-2.11479 -0.0504243 -5.10006e-20)
(-2.08991 -0.0537077 4.84861e-20)
(-2.06339 -0.0568862 1.38687e-19)
(-2.03524 -0.0599512 0)
(-2.0055 -0.0628947 1.23088e-19)
(-1.97421 -0.0657081 3.90614e-20)
(-1.94139 -0.0683838 0)
(-1.9071 -0.0709141 6.62552e-20)
(-1.87138 -0.0732924 6.07324e-20)
(-1.83429 -0.075512 -8.21088e-20)
(-1.79589 -0.0775679 0)
(-1.75624 -0.079454 -2.12459e-20)
(-1.7154 -0.0811648 -1.83453e-20)
(-1.67344 -0.082697 -4.76178e-20)
(-1.63044 -0.0840519 0)
(-1.58647 -0.0852383 0)
(-1.54161 -0.086255 0)
(-1.49595 -0.0870875 -5.00564e-21)
(-1.44956 -0.0877408 0)
(-1.40254 -0.0882304 0)
(-1.35497 -0.0885524 -5.46172e-21)
(-1.30692 -0.0887034 -8.46081e-21)
(-1.25849 -0.0886828 0)
(-1.20976 -0.0884931 0)
(-1.16082 -0.0881357 -3.4798e-20)
(-1.11175 -0.0876159 0)
(-1.06264 -0.0869375 4.65356e-20)
(-1.01357 -0.0861086 5.07996e-20)
(-0.964626 -0.0851357 0)
(-0.915877 -0.084027 0)
(-0.867392 -0.0827881 -6.78044e-20)
(-0.819234 -0.0814286 -1.45924e-21)
(-0.771463 -0.0799617 -1.43436e-21)
(-0.72414 -0.0784074 0)
(-0.67732 -0.0767847 -1.80041e-19)
(-0.631049 -0.0751114 0)
(-0.585361 -0.0733983 0)
(-0.540281 -0.0716585 0)
(-0.495824 -0.0699029 1.10411e-19)
(-0.452 -0.0681477 0)
(-0.408807 -0.0664047 -2.36736e-19)
(-0.366233 -0.0646895 -1.23833e-19)
(-0.324256 -0.0630131 0)
(-0.282845 -0.0613939 -1.32065e-19)
(-0.241956 -0.0598439 0)
(-0.201536 -0.0583796 0)
(-0.161519 -0.0570122 -4.28176e-19)
(-0.121824 -0.0557632 2.91863e-19)
(-0.0823651 -0.054643 0)
(-0.043035 -0.053668 3.04832e-19)
(-0.00371239 -0.052849 -1.56018e-19)
(0.0356997 -0.0521965 0)
(0.0753294 -0.0517127 0)
(0.115373 -0.0514173 0)
(0.156028 -0.0513093 -4.84186e-19)
(0.197501 -0.0514062 0)
(0.240019 -0.0517288 -1.62904e-19)
(0.283808 -0.0522695 0)
(0.329146 -0.0529989 0)
(0.376355 -0.0539613 0)
(0.425694 -0.055245 0)
(0.477291 -0.0568976 0)
(0.531288 -0.0588984 0)
(0.587829 -0.0611909 -3.31293e-19)
(0.647042 -0.0636851 0)
(0.708997 -0.0662779 -1.67329e-19)
(0.773654 -0.0688309 5.03843e-19)
(0.840861 -0.0711281 0)
(0.910157 -0.072809 0)
(0.981181 -0.0731628 -3.43964e-19)
(1.0514 -0.0709628 -3.49736e-19)
(1.12464 -0.062778 3.55357e-19)
(1.18229 -0.0399515 3.67334e-19)
(-0.0085956 -0.0268739 -2.84187e-18)
(-0.0193506 0.00475949 -1.12004e-18)
(-0.0320769 0.0312075 -4.04491e-19)
(-0.0467881 0.0536398 -1.4517e-19)
(-0.0623881 0.0730855 0)
(-0.0785661 0.0899265 2.10321e-19)
(-0.0954788 0.104341 -9.61106e-20)
(-0.113325 0.116508 0)
(-0.132243 0.126678 -8.49991e-20)
(-0.152309 0.135166 0)
(-0.173546 0.142308 1.55557e-19)
(-0.195942 0.148424 0)
(-0.219461 0.153795 7.2328e-20)
(-0.244062 0.158652 1.40063e-19)
(-0.269703 0.163178 -1.35934e-19)
(-0.296341 0.167514 0)
(-0.323934 0.171768 -1.28885e-19)
(-0.352432 0.176015 0)
(-0.381776 0.180303 0)
(-0.411884 0.184646 -1.20806e-19)
(-0.442647 0.189014 0)
(-0.473927 0.193311 1.45607e-23)
(-0.505564 0.197377 0)
(-0.5374 0.201011 0)
(-0.569324 0.203991 -7.07584e-23)
(-0.601309 0.206149 -1.07119e-19)
(-0.633382 0.207552 -1.04193e-19)
(-0.665484 0.208563 -1.01474e-19)
(-0.697363 0.209428 0)
(-0.728786 0.210128 -1.92411e-19)
(-0.759652 0.210518 0)
(-0.790015 0.210317 -9.18982e-20)
(-0.820101 0.209362 0)
(-0.8501 0.207825 0)
(-0.87999 0.205951 8.57693e-20)
(-0.909788 0.203636 0)
(-0.939649 0.20108 -8.18163e-20)
(-0.96955 0.198626 -4.32819e-23)
(-0.999322 0.196321 1.56774e-19)
(-1.02891 0.194029 -1.53531e-19)
(-1.05835 0.19174 0)
(-1.08768 0.189464 0)
(-1.1169 0.187204 -7.23475e-20)
(-1.14603 0.184958 0)
(-1.17506 0.182722 -6.98656e-20)
(-1.204 0.180492 6.86547e-20)
(-1.23285 0.178265 6.74914e-20)
(-1.2616 0.176034 0)
(-1.29026 0.173796 -6.52939e-20)
(-1.31881 0.171546 -6.42536e-20)
(-1.34725 0.169277 1.26346e-19)
(-1.37557 0.166983 -6.2276e-20)
(-1.40376 0.164658 -6.13338e-20)
(-1.43179 0.162296 0)