/*--------------------------------*- C++ -*----------------------------------*\
  =========                 |
  \\      /  F ield         | OpenFOAM: The Open Source CFD Toolbox
   \\    /   O peration     | Website:  https://openfoam.org
    \\  /    A nd           | Version:  8
     \\/     M anipulation  |
\*---------------------------------------------------------------------------*/
FoamFile
{
    version     2.0;
    format      ascii;
    class       volScalarField;
    location    "200";
    object      upod_2;
}
// * * * * * * * * * * * * * * * * * * * * * * * * * * * * * * * * * * * * * //

dimensions      [0 1 -1 0 0 0 0];

internalField   nonuniform List<scalar> 
12225
(
0.00528784
0.00292839
0.00279836
0.00176532
0.00144593
0.00135473
0.00129926
0.00116409
0.000951217
0.000718509
0.000494049
0.000347
0.000263933
0.00038552
0.000390233
0.00211514
0.0024201
0.00519293
0.00533877
0.00368921
0.00336931
0.00201841
0.00102016
0.000229948
-0.000392057
-0.000914551
-0.00128701
-0.00158575
-0.00189688
-0.00191713
-0.00188454
-0.00168075
-0.00119747
-0.000750992
0.00115496
0.00297815
0.00514775
0.00406861
0.00358222
0.00232347
0.00139823
0.000637301
2.16685e-05
-0.00050765
-0.000911129
-0.00126526
-0.00158815
-0.0016821
-0.00168728
-0.00155221
-0.00120787
-0.000860177
0.000387598
0.00254235
0.0050072
0.00430924
0.00373219
0.00250286
0.00162602
0.000904238
0.000318149
-0.000185364
-0.00058417
-0.00094342
-0.00123986
-0.00138561
-0.00142961
-0.00135612
-0.00110264
-0.000797943
-6.16554e-05
0.00136078
0.00490177
0.00440962
0.00389041
0.00269387
0.00184219
0.00113736
0.000565627
7.98373e-05
-0.000311967
-0.000657578
-0.000929471
-0.00109004
-0.00115038
-0.00110676
-0.000910671
-0.000647296
-0.000170269
0.000530273
0.00482589
0.00443532
0.00407028
0.00293391
0.00211178
0.00141765
0.000851193
0.000371141
-1.33593e-05
-0.000345898
-0.000601558
-0.000764625
-0.000828582
-0.000795838
-0.000642019
-0.000427909
-0.000125861
0.000180041
0.00478455
0.00442601
0.00426027
0.00322252
0.00245061
0.00177663
0.00121806
0.000743883
0.000369025
4.63194e-05
-0.000197106
-0.000356938
-0.000416724
-0.000387683
-0.000270085
-0.000107064
5.55012e-05
0.00014756
0.00474793
0.00443729
0.00445188
0.00354072
0.0028437
0.00220865
0.00167194
0.00121256
0.000851184
0.000538532
0.000309553
0.000162952
0.000107544
0.000127111
0.000208436
0.000325115
0.000364921
0.000345751
0.00470599
0.00447368
0.00462725
0.0038577
0.00326012
0.00268422
0.00218504
0.00174881
0.00140847
0.0011184
0.000907442
0.000776492
0.000722872
0.00072864
0.000778443
0.000849326
0.000800029
0.000718513
0.00467156
0.00452572
0.00478082
0.00415066
0.00366293
0.00315601
0.00269932
0.00229258
0.00198185
0.00172294
0.00153297
0.00141576
0.00136326
0.00135734
0.00138712
0.00141715
0.00130933
0.00119768
0.00465344
0.00461546
0.00488247
0.00434911
0.00395877
0.00351977
0.00310962
0.00274111
0.00245278
0.00221724
0.00204688
0.00194411
0.00189683
0.00189029
0.00191059
0.00191998
0.0017901
0.00165606
0.00467964
0.00447068
0.00458162
0.00415731
0.0039018
0.0035868
0.00329874
0.00305526
0.00287144
0.00273158
0.00264764
0.00261762
0.00263108
0.00267888
0.00273545
0.0027873
0.00269969
0.00266238
0.00462795
0.0043575
0.00437932
0.00397677
0.00388528
0.00375172
0.00364896
0.00358807
0.00357434
0.00359013
0.00363946
0.00372377
0.00383601
0.0039646
0.00408232
0.00420542
0.00414717
0.0043007
0.00448972
0.00451369
0.00472316
0.00439105
0.00440183
0.00438057
0.00440126
0.00446488
0.00458164
0.00472169
0.0048804
0.00505898
0.0052429
0.00542227
0.00558015
0.00573362
0.0056479
0.00583919
0.00432887
0.0044951
0.00506079
0.00502027
0.00520975
0.00532135
0.00545337
0.00561875
0.00582493
0.00604415
0.00627193
0.00650447
0.00672408
0.00692253
0.0070837
0.00722746
0.00709605
0.00728584
0.00420906
0.00430406
0.00508973
0.0053924
0.00585762
0.00618957
0.00647968
0.00676428
0.00705393
0.00733553
0.00760526
0.00785922
0.00808243
0.00826765
0.00840464
0.00851768
0.00833066
0.00846335
0.00415925
0.00405641
0.00485552
0.00537747
0.00607053
0.00661061
0.0070649
0.00747825
0.00786279
0.0082159
0.00853165
0.00879865
0.00901464
0.00918041
0.00928841
0.00937895
0.0091457
0.0092722
0.00417491
0.00381799
0.00453413
0.00513657
0.00595063
0.00662069
0.00718944
0.00770245
0.00816037
0.00855685
0.00889409
0.00917017
0.00938002
0.0095261
0.00961174
0.00968122
0.00940551
0.00953748
0.00418816
0.00370211
0.00432526
0.00489728
0.00571764
0.00641384
0.00700813
0.00752465
0.00796432
0.00832912
0.00862389
0.0088527
0.0090145
0.00911583
0.00916161
0.00919564
0.00889265
0.00902563
0.0042436
0.00386534
0.00438022
0.00470535
0.00530304
0.00579701
0.00621791
0.00657931
0.00688665
0.00713935
0.00733835
0.00748575
0.0075851
0.00764134
0.00765689
0.00767134
0.00739084
0.00748559
0.00426904
0.00402713
0.0045415
0.00472647
0.00516093
0.0054856
0.00575006
0.00597208
0.00615809
0.00630652
0.00641593
0.00648535
0.00651713
0.00651723
0.00648441
0.00645617
0.0061703
0.00619715
0.00430473
0.00417143
0.00470242
0.00477155
0.00505034
0.00520654
0.00531586
0.00539335
0.00545109
0.00548036
0.00548045
0.00545246
0.00539817
0.00532332
0.00522612
0.00513764
0.00482885
0.0047955
0.00436101
0.0043055
0.00481789
0.00472816
0.00481553
0.00478004
0.004715
0.00463141
0.00454335
0.00443684
0.00431267
0.00417445
0.0040265
0.00386817
0.00370355
0.00354724
0.00321382
0.00309781
0.0044408
0.00441058
0.00482998
0.00452282
0.00438922
0.00415514
0.0039115
0.00366707
0.00343589
0.0032006
0.00296224
0.00272667
0.00249507
0.002267
0.00204495
0.00183755
0.00149501
0.00133529
0.00453811
0.00447031
0.00470588
0.00414956
0.00380069
0.00339739
0.00300769
0.00264144
0.00230045
0.00196722
0.00164613
0.00133777
0.00104135
0.000757619
0.000485828
0.0002341
-0.000115194
-0.000337432
0.00463954
0.00447757
0.00446159
0.00369529
0.00318517
0.00267227
0.0021926
0.00175798
0.00134418
0.000944168
0.000562027
0.000197804
-0.000150608
-0.000481571
-0.000802401
-0.00109996
-0.00145872
-0.00176409
0.00474794
0.00442707
0.00416962
0.00327162
0.00266441
0.00208751
0.00155701
0.00106651
0.000603289
0.00016213
-0.000270947
-0.000675765
-0.00106084
-0.00143658
-0.00179789
-0.00212448
-0.00250545
-0.00285393
0.00488303
0.00426316
0.00390819
0.00294432
0.00225766
0.00160513
0.00100909
0.000428267
-7.43166e-05
-0.000556542
-0.00106321
-0.0014916
-0.00190012
-0.00233325
-0.00271149
-0.00305049
-0.00345215
-0.00385797
0.0051054
0.00414062
0.00375532
0.00262851
0.00178272
0.00097925
0.000262102
-0.000474978
-0.00102515
-0.00156084
-0.00219097
-0.00261888
-0.00303864
-0.00356683
-0.00392224
-0.00422703
-0.00468519
-0.00514968
0.00494582
0.00367203
0.00302989
0.00185523
0.00121681
0.000655224
0.000146476
-0.000379635
-0.000830235
-0.00128114
-0.00174176
-0.00212908
-0.00250561
-0.00288869
-0.00321729
-0.00351587
-0.00390087
-0.00443356
-0.000747545
-0.00180372
-0.00274947
-0.00387546
-0.00488774
-0.0056095
-0.00606894
-0.00631412
-0.00631124
-0.00611343
-0.00570377
-0.00511884
-0.00441893
-0.00362298
-0.00273481
-0.00178539
-0.000752794
0.000327691
0.00149362
0.00271154
0.00401363
0.0053807
0.00681279
0.00830086
0.00983629
0.0113964
0.0129702
0.0145413
0.016099
0.0176204
0.019099
0.0205274
0.0219064
0.0232131
0.0244585
0.0256313
0.0267363
0.0277634
0.0287228
0.0296094
0.0304297
0.0311819
0.031875
0.0325065
0.0330821
0.0336005
0.0340694
0.0344857
0.0348532
0.0351736
0.0354496
0.0356814
0.0358721
0.0360217
0.0361319
0.0362017
0.0362306
0.0362209
0.0361735
0.0360887
0.035969
0.0358133
0.0356227
0.0353965
0.0351359
0.0348437
0.0345181
0.03416
0.0337695
0.0333482
0.0328949
0.0324116
0.0318994
0.0313561
0.0307812
0.0301869
0.0295577
0.0289082
0.0282286
0.0275324
0.0268092
0.0260675
0.0253055
0.0245231
0.0237235
0.0229002
0.0220682
0.0212259
0.0203725
0.0195187
0.0186501
0.0177786
0.0168947
0.0160104
0.0151232
0.0142327
0.0133522
0.0124628
0.0115912
0.0107136
0.0098514
0.008991
0.00815009
0.00730759
0.00649058
0.00568315
0.00488432
0.00411864
0.00336532
0.00262882
0.00192208
0.00122878
0.000563664
-7.83998e-05
-0.000688972
-0.00129078
-0.00185418
-0.00239611
-0.00291916
-0.00340513
-0.0038724
-0.00430656
-0.00471539
-0.00510507
-0.00546073
-0.00579181
-0.00609269
-0.00637362
-0.00662648
-0.00683416
-0.00702577
-0.00717989
-0.00733954
-0.00743948
-0.00754963
-0.00760476
-0.00765713
-0.00769154
-0.00770535
-0.00767467
-0.0076386
-0.00755722
-0.00749025
-0.00738362
-0.00728391
-0.00716176
-0.00700735
-0.00685226
-0.00668114
-0.00649847
-0.00627349
-0.00607712
-0.00586364
-0.00562646
-0.00535684
-0.00513007
-0.00486071
-0.00461145
-0.00436148
-0.00404375
-0.00379522
-0.00349771
-0.00324492
-0.00293997
-0.00267742
-0.00238632
-0.0020979
-0.00184839
-0.00154592
-0.00125115
-0.000982186
-0.00073467
-0.000409936
-0.000198663
8.15857e-05
0.000352828
0.000599569
0.000944724
0.00123894
0.00138304
-0.000654854
-0.00172208
-0.00248159
-0.00299631
-0.00326725
-0.00328673
-0.00309863
-0.00273975
-0.00223283
-0.00158703
-0.000815628
7.2125e-05
0.0010656
0.00216272
0.00334782
0.00461586
0.00594424
0.00733692
0.00877851
0.0102531
0.0117525
0.0132573
0.0147515
0.0162248
0.0176657
0.0190642
0.0204063
0.0216899
0.022908
0.0240604
0.0251381
0.0261453
0.0270798
0.0279482
0.0287462
0.0294863
0.0301664
0.0307947
0.0313743
0.0319058
0.0323976
0.032843
0.033249
0.0336138
0.033944
0.0342318
0.0344844
0.0347043
0.0348845
0.0350346
0.0351497
0.0352347
0.0352866
0.0353077
0.035295
0.0352505
0.0351733
0.0350689
0.0349324
0.0347589
0.0345662
0.0343367
0.0340807
0.0337873
0.0334712
0.0331242
0.0327488
0.0323472
0.0319115
0.0314549
0.0309724
0.0304594
0.0299248
0.0293566
0.0287621
0.0281485
0.0275089
0.0268487
0.026159
0.0254597
0.0247228
0.0239731
0.0232116
0.0224245
0.0216302
0.0208112
0.0199876
0.0191486
0.0182934
0.0174418
0.0165744
0.0156932
0.0148054
0.013937
0.0130434
0.0121446
0.0112824
0.0103868
0.0095284
0.00864522
0.00779828
0.00693198
0.00610877
0.00525939
0.00446837
0.00367597
0.00287549
0.00212486
0.00139398
0.000641274
-3.76388e-05
-0.000713858
-0.00138693
-0.00204668
-0.00263019
-0.00323011
-0.00377159
-0.00431263
-0.0048363
-0.00527106
-0.0057176
-0.00612123
-0.00651291
-0.00691067
-0.00726235
-0.00761231
-0.00783388
-0.00808511
-0.00834123
-0.00855853
-0.00875368
-0.00884934
-0.00900872
-0.00905282
-0.0091724
-0.00916097
-0.00916248
-0.00915275
-0.00912919
-0.00908482
-0.00907569
-0.00903081
-0.00897173
-0.0087698
-0.00865979
-0.00857392
-0.00832791
-0.00811436
-0.00793681
-0.00781713
-0.00749551
-0.0072313
-0.00704056
-0.00685704
-0.00650134
-0.00630031
-0.005917
-0.0056782
-0.00547098
-0.00507168
-0.00483438
-0.00446065
-0.00420571
-0.0038398
-0.00359893
-0.00321373
-0.00285948
-0.00263862
-0.00230063
-0.0019313
-0.00168871
-0.001487
-0.00104585
-0.000869241
-0.000435633
-0.000116668
-5.71278e-05
0.000364142
0.000484045
0.000552016
-0.000316663
-0.00079737
-0.000923235
-0.000836751
-0.000579045
-0.000154113
0.000410511
0.00108868
0.00186226
0.00272396
0.00366193
0.00466589
0.00573283
0.00686164
0.00804512
0.00927424
0.0105395
0.0118248
0.0131098
0.0143802
0.0156347
0.0168595
0.0180341
0.0191609
0.0202365
0.0212563
0.0222166
0.0231266
0.0239812
0.0247909
0.0255561
0.0262776
0.0269516
0.0275949
0.0281967
0.0287683
0.0293024
0.0298054
0.030281
0.0307275
0.0311477
0.0315263
0.0318783
0.0322023
0.0324996
0.0327568
0.0329852
0.0331913
0.0333575
0.0334999
0.0336107
0.0336862
0.033729
0.0337414
0.0337135
0.0336606
0.0335814
0.033479
0.0333464
0.0331726
0.0329794
0.0327501
0.0324994
0.0322114
0.0319045
0.0315691
0.0311937
0.0308001
0.0303713
0.0299243
0.0294406
0.028932
0.0284037
0.0278566
0.0272823
0.0266731
0.0260477
0.025391
0.0247198
0.0240332
0.0233081
0.0225757
0.0218166
0.0210402
0.0202548
0.0194621
0.018642
0.0178153
0.0169905
0.0161466
0.0153037
0.0144369
0.0135679
0.012715
0.0118394
0.0109639
0.0101177
0.00924027
0.00838703
0.00753043
0.00670959
0.00587867
0.00507123
0.00424383
0.00345956
0.00268614
0.00192965
0.00117728
0.000467231
-0.000259669
-0.000933282
-0.00159088
-0.00222653
-0.00286524
-0.00345024
-0.004016
-0.00455666
-0.0050662
-0.00555229
-0.00599275
-0.00646042
-0.00686776
-0.00725404
-0.00760776
-0.00790791
-0.00824608
-0.00848345
-0.00874275
-0.00896194
-0.0091695
-0.00935044
-0.00946315
-0.00959069
-0.00964988
-0.00975338
-0.00977305
-0.00979336
-0.0097896
-0.0097572
-0.00970831
-0.00964517
-0.00959418
-0.0095064
-0.00932477
-0.00918526
-0.00909578
-0.00889205
-0.00870221
-0.00847185
-0.00833671
-0.00807518
-0.0078006
-0.00755478
-0.00736506
-0.00705289
-0.00683871
-0.00648682
-0.00621568
-0.00596731
-0.00563931
-0.00537998
-0.00504989
-0.00473719
-0.00442842
-0.00416433
-0.00382974
-0.00351025
-0.00321353
-0.00296799
-0.00261467
-0.00233093
-0.00206023
-0.00170834
-0.00148565
-0.00107097
-0.000765792
-0.000695464
-0.000280243
-0.000148919
1.61419e-05
0.000164526
0.000163417
0.000557156
0.00107696
0.00168185
0.0023746
0.00313881
0.00396318
0.00483836
0.00575814
0.00671543
0.00770526
0.00872632
0.00977301
0.0108355
0.0119079
0.0129837
0.0140472
0.0150879
0.0160993
0.0170756
0.0180096
0.0188947
0.0197356
0.0205351
0.0212963
0.0220222
0.0227162
0.0233775
0.0240161
0.0246315
0.0252216
0.0257878
0.0263358
0.0268626
0.0273723
0.0278585
0.0283184
0.0287524
0.0291626
0.0295506
0.0299081
0.0302432
0.0305472
0.0308224
0.0310697
0.0312865
0.0314763
0.0316323
0.0317616
0.0318618
0.0319321
0.0319711
0.0319832
0.0319645
0.0319182
0.0318419
0.0317354
0.0316016
0.0314376
0.0312479
0.0310274
0.0307813
0.0305051
0.0302025
0.0298739
0.029513
0.0291308
0.0287188
0.0282843
0.027818
0.0273291
0.026812
0.0262732
0.0257093
0.0251205
0.0245127
0.0238756
0.0232213
0.0225459
0.021848
0.0211353
0.0204018
0.0196542
0.0188869
0.0181115
0.0173159
0.0165126
0.0157068
0.0148835
0.0140631
0.0132276
0.0123906
0.0115524
0.0107085
0.00986224
0.00902724
0.00818948
0.00735676
0.0065313
0.00571791
0.00491099
0.00411978
0.00333503
0.00256878
0.00181284
0.00108215
0.000356916
-0.000334573
-0.00102106
-0.00167821
-0.00231673
-0.00292791
-0.00352677
-0.0040941
-0.00463518
-0.00516076
-0.00565016
-0.00612065
-0.00655924
-0.00698904
-0.00738113
-0.00775104
-0.00808743
-0.00838395
-0.00867857
-0.00892943
-0.00917038
-0.00936825
-0.00955543
-0.00971134
-0.00984191
-0.00995033
-0.0100261
-0.0100943
-0.0101275
-0.0101463
-0.0101456
-0.0101146
-0.0100626
-0.0099786
-0.00989717
-0.00978766
-0.00965614
-0.00950945
-0.00936718
-0.00919556
-0.00901864
-0.00879753
-0.00860412
-0.00838656
-0.0081453
-0.00788488
-0.00765397
-0.00738279
-0.00713108
-0.00684242
-0.00656109
-0.00627692
-0.00597861
-0.0057006
-0.00541824
-0.0051009
-0.00481486
-0.00452527
-0.00422789
-0.00394931
-0.00361898
-0.00338864
-0.00308557
-0.00278104
-0.00247208
-0.00218935
-0.00193216
-0.00159504
-0.00132779
-0.00115067
-0.0008422
-0.00065274
-0.000432482
0.000541456
0.000857325
0.00157171
0.00235942
0.00317267
0.00401752
0.0048864
0.00577383
0.00667557
0.00758669
0.00850304
0.00942221
0.010342
0.0112574
0.0121642
0.0130583
0.0139319
0.0147805
0.0156002
0.0163874
0.0171422
0.0178645
0.0185554
0.0192188
0.0198562
0.020472
0.0210684
0.0216466
0.0222105
0.0227608
0.0232989
0.0238219
0.0243353
0.0248351
0.0253177
0.0257844
0.0262337
0.0266627
0.0270705
0.0274566
0.0278197
0.0281577
0.0284716
0.0287583
0.0290192
0.0292516
0.0294561
0.029634
0.0297828
0.0299035
0.0299957
0.0300605
0.0300974
0.0301069
0.0300897
0.0300439
0.0299703
0.0298674
0.0297375
0.0295802
0.0293951
0.0291842
0.0289463
0.0286816
0.0283898
0.0280716
0.0277277
0.0273574
0.0269619
0.0265405
0.026092
0.0256219
0.0251247
0.0246029
0.0240571
0.0234915
0.0229007
0.0222881
0.0216557
0.0210024
0.0203331
0.0196423
0.0189357
0.0182122
0.0174756
0.0167236
0.0159586
0.0151835
0.0144
0.0136091
0.0128152
0.0120109
0.0112054
0.0103922
0.00957841
0.00876667
0.00795736
0.00715403
0.00635155
0.00556149
0.00477496
0.00399777
0.00323164
0.00248072
0.00174201
0.0010194
0.000312222
-0.000378046
-0.00104695
-0.00169598
-0.00232852
-0.00293845
-0.00352694
-0.00409109
-0.00462939
-0.00515094
-0.00564817
-0.00611527
-0.00656399
-0.00698536
-0.00738247
-0.00775356
-0.008098
-0.00841602
-0.00871026
-0.00897216
-0.00921827
-0.00943157
-0.00962331
-0.00978753
-0.00992972
-0.0100492
-0.0101474
-0.0102159
-0.0102708
-0.0102986
-0.0103062
-0.0102927
-0.0102593
-0.0102001
-0.0101166
-0.0100157
-0.00989963
-0.00977684
-0.00963354
-0.00946877
-0.00929959
-0.0091178
-0.00891585
-0.00870414
-0.00848847
-0.00826498
-0.00801383
-0.0077619
-0.00750193
-0.00724052
-0.00697437
-0.00669935
-0.00641691
-0.00612715
-0.00584673
-0.00556422
-0.00527425
-0.00498453
-0.00469685
-0.00440704
-0.00413206
-0.00382832
-0.0035575
-0.00328073
-0.00299244
-0.00270676
-0.00243571
-0.00218355
-0.00192023
-0.00167101
-0.00143206
-0.00118956
-0.000966463
-0.000734464
0.000759404
0.00126065
0.00213829
0.00306323
0.00397397
0.00488056
0.00578141
0.00667353
0.00755371
0.00841804
0.00926448
0.0100922
0.0108998
0.0116845
0.0124459
0.0131823
0.013891
0.0145726
0.0152289
0.0158607
0.01647
0.0170584
0.0176288
0.0181837
0.0187256
0.0192585
0.0197792
0.0202912
0.0207964
0.0212934
0.0217831
0.0222627
0.0227352
0.023196
0.0236409
0.024073
0.024491
0.0248903
0.0252715
0.0256315
0.0259696
0.0262859
0.026579
0.0268461
0.0270904
0.027308
0.0275
0.0276659
0.0278046
0.0279175
0.0280033
0.0280629
0.0280967
0.028104
0.0280855
0.0280405
0.0279688
0.0278702
0.0277465
0.0275969
0.0274208
0.0272192
0.0269922
0.026739
0.0264606
0.0261565
0.0258295
0.0254749
0.0250961
0.0246922
0.0242643
0.0238127
0.0233389
0.0228392
0.0223165
0.0217727
0.0212051
0.020619
0.0200143
0.0193883
0.0187456
0.0180852
0.0174094
0.0167135
0.0160071
0.0152863
0.0145543
0.0138094
0.0130574
0.0123019
0.0115419
0.0107712
0.00999783
0.00921749
0.00844213
0.00766904
0.00689284
0.0061259
0.00536113
0.00460509
0.00385541
0.00311496
0.00238772
0.0016709
0.000962941
0.000278425
-0.000397624
-0.00105499
-0.00169143
-0.00230769
-0.00290834
-0.00348132
-0.00403799
-0.00456994
-0.00507902
-0.00557032
-0.00604293
-0.00648525
-0.00690404
-0.00729631
-0.00766942
-0.00801442
-0.0083376
-0.00863105
-0.0089068
-0.00914445
-0.00937406
-0.00956709
-0.00974467
-0.00988656
-0.0100149
-0.0101168
-0.0102084
-0.0102646
-0.0103073
-0.0103255
-0.010321
-0.0102958
-0.0102558
-0.0101845
-0.0100972
-0.00999028
-0.00987001
-0.00973939
-0.00959332
-0.00943032
-0.00925615
-0.00907087
-0.00886948
-0.00866319
-0.00844483
-0.00822076
-0.00796895
-0.00772349
-0.00746407
-0.00720594
-0.00694588
-0.00667819
-0.00640206
-0.00612337
-0.00584169
-0.0055631
-0.00528254
-0.00500168
-0.00471992
-0.00443957
-0.00416545
-0.00388488
-0.00359921
-0.0033281
-0.00306023
-0.00279745
-0.00253933
-0.00229464
-0.00206793
-0.00182626
-0.00159188
-0.00137047
-0.00115306
-0.00091839
0.000839234
0.00145371
0.00237636
0.00333765
0.00425882
0.00515635
0.00603097
0.00688025
0.00770211
0.00849397
0.00925503
0.00998531
0.0106857
0.0113565
0.0119989
0.0126134
0.0132024
0.0137706
0.0143189
0.0148489
0.0153648
0.0158695
0.0163653
0.0168522
0.0173325
0.0178105
0.0182797
0.0187451
0.0192057
0.0196635
0.0201144
0.0205574
0.0209926
0.0214186
0.0218317
0.0222322
0.0226175
0.0229861
0.0233391
0.023671
0.0239828
0.0242742
0.0245444
0.0247901
0.025015
0.025216
0.0253924
0.0255457
0.0256741
0.0257785
0.0258577
0.0259124
0.0259425
0.025948
0.0259289
0.0258855
0.0258166
0.0257233
0.0256063
0.0254656
0.0252982
0.0251079
0.0248938
0.0246544
0.0243916
0.024104
0.0237931
0.0234569
0.023099
0.0227158
0.0223118
0.0218841
0.0214352
0.0209612
0.0204647
0.0199491
0.0194112
0.0188551
0.0182798
0.0176824
0.0170729
0.0164467
0.0158056
0.0151474
0.0144744
0.0137882
0.0130927
0.012383
0.0116709
0.0109517
0.0102275
0.00949561
0.0087628
0.00802388
0.00729134
0.00655907
0.00582282
0.00509782
0.0043736
0.00365662
0.00294786
0.00224764
0.00156019
0.000885887
0.000217433
-0.000428225
-0.0010632
-0.00167916
-0.00227951
-0.00285811
-0.00342162
-0.00395948
-0.00448331
-0.00498122
-0.00545883
-0.00591208
-0.00635171
-0.00676421
-0.00715204
-0.00751862
-0.00786036
-0.00817566
-0.00847384
-0.00874324
-0.0089958
-0.00920966
-0.00941487
-0.00958959
-0.00974372
-0.00986833
-0.00998229
-0.0100653
-0.0101431
-0.0101873
-0.010213
-0.0102258
-0.0102103
-0.0101722
-0.0101196
-0.0100372
-0.00994603
-0.00983598
-0.00971145
-0.00957627
-0.00942495
-0.00926144
-0.00908246
-0.00889642
-0.0086976
-0.0084881
-0.00826778
-0.00804179
-0.00779375
-0.00756179
-0.00729992
-0.00704518
-0.00679161
-0.00652859
-0.00625793
-0.0059863
-0.00570797
-0.00543776
-0.00516538
-0.00489307
-0.00462099
-0.004349
-0.00408552
-0.00381848
-0.00353733
-0.00327148
-0.00301992
-0.00276759
-0.00252664
-0.0022931
-0.00207386
-0.0018459
-0.00162782
-0.00142592
-0.00122187
-0.00100003
0.000831657
0.0014723
0.00236174
0.0032899
0.00416791
0.00501044
0.00581908
0.00659302
0.00733204
0.0080365
0.00870557
0.00934063
0.00994625
0.0105222
0.0110705
0.0115942
0.0120973
0.0125856
0.0130599
0.0135224
0.0139758
0.0144217
0.0148626
0.0153022
0.0157382
0.016173
0.0166023
0.0170295
0.0174542
0.0178765
0.0182901
0.018697
0.0190961
0.019486
0.0198628
0.0202283
0.0205795
0.0209163
0.0212387
0.0215412
0.0218252
0.0220897
0.0223351
0.0225594
0.0227651
0.0229482
0.0231089
0.0232492
0.0233664
0.0234612
0.023533
0.0235821
0.0236093
0.0236137
0.023595
0.0235538
0.0234888
0.0234032
0.0232937
0.023162
0.0230054
0.0228295
0.0226294
0.0224055
0.0221614
0.0218944
0.021604
0.0212901
0.0209556
0.0205978
0.0202191
0.019818
0.0193946
0.0189499
0.0184845
0.0180019
0.0174965
0.0169733
0.0164321
0.0158701
0.0152952
0.014703
0.0140988
0.0134811
0.0128484
0.0122059
0.0115545
0.0108891
0.0102191
0.00954186
0.00886135
0.00817428
0.0074898
0.0067989
0.0061103
0.00541912
0.00472778
0.00404854
0.0033727
0.00270478
0.00204047
0.00138798
0.00074364
0.000114598
-0.000505856
-0.00110793
-0.00169927
-0.00227074
-0.00282988
-0.00336326
-0.0038846
-0.00438193
-0.00486837
-0.00532631
-0.00576757
-0.00618631
-0.00658712
-0.006964
-0.00731865
-0.00765633
-0.00796272
-0.00825021
-0.00851411
-0.00876021
-0.00898959
-0.00918043
-0.00935862
-0.00951252
-0.00964894
-0.00975567
-0.00985211
-0.00991648
-0.00996934
-0.0099995
-0.01001
-0.0100124
-0.00998758
-0.00993744
-0.00987437
-0.00978819
-0.0096879
-0.00957181
-0.00944168
-0.00930337
-0.00914846
-0.00898037
-0.00879619
-0.00860532
-0.00840797
-0.00819551
-0.00797872
-0.00775207
-0.00751577
-0.007289
-0.00703329
-0.00678343
-0.00653114
-0.00627693
-0.006011
-0.00574831
-0.00547855
-0.00521312
-0.00494995
-0.0046828
-0.00442038
-0.00415649
-0.00389845
-0.00364494
-0.00337943
-0.00312874
-0.00288805
-0.0026413
-0.00241464
-0.00219519
-0.0019824
-0.00177686
-0.00156794
-0.00138442
-0.00118747
-0.00098755
0.000778029
0.00137188
0.00217995
0.00302291
0.00381454
0.00456857
0.00528871
0.00597137
0.00661615
0.00722594
0.00780177
0.00834904
0.00887019
0.00936275
0.00983356
0.0102876
0.0107257
0.0111528
0.0115689
0.0119769
0.0123794
0.0127794
0.0131797
0.0135797
0.0139762
0.0143711
0.014763
0.0151525
0.0155372
0.0159187
0.0162939
0.016661
0.0170213
0.017373
0.0177123
0.0180402
0.0183545
0.0186585
0.0189471
0.0192163
0.0194726
0.0197113
0.0199325
0.0201348
0.02032
0.0204843
0.0206284
0.0207543
0.0208591
0.0209443
0.021009
0.021053
0.0210773
0.0210809
0.0210634
0.0210261
0.0209674
0.0208897
0.0207891
0.02067
0.0205277
0.020367
0.020183
0.0199791
0.0197542
0.0195083
0.0192422
0.0189545
0.0186453
0.018315
0.0179647
0.0175929
0.0172017
0.0167908
0.0163598
0.0159134
0.0154454
0.0149596
0.0144575
0.0139384
0.0134031
0.0128533
0.012292
0.0117178
0.0111285
0.0105341
0.00992895
0.00931522
0.00869045
0.00806474
0.00743489
0.00679782
0.00616114
0.00551765
0.00488036
0.00424568
0.00360752
0.00298067
0.00235734
0.00173826
0.00112312
0.00052486
-6.72812e-05
-0.000646844
-0.00121694
-0.00176801
-0.00230741
-0.00283009
-0.00334066
-0.00383024
-0.00430946
-0.0047626
-0.00520216
-0.00561676
-0.00601445
-0.00639414
-0.00675774
-0.00709539
-0.0074139
-0.00771347
-0.00798744
-0.00824493
-0.00847295
-0.00869032
-0.00888849
-0.00905442
-0.00920919
-0.00934085
-0.00945728
-0.00953986
-0.00961618
-0.0096661
-0.00970031
-0.00971371
-0.00971049
-0.00969496
-0.00965577
-0.00959791
-0.00952995
-0.00944029
-0.00933133
-0.0092061
-0.00907111
-0.00892591
-0.00877113
-0.00860123
-0.00841862
-0.00822248
-0.00802918
-0.00781398
-0.00760042
-0.00737615
-0.00714738
-0.00691609
-0.00667129
-0.00643363
-0.00618486
-0.00593276
-0.00567323
-0.00542121
-0.00516473
-0.00490292
-0.00465089
-0.00438945
-0.00413339
-0.00388084
-0.00363003
-0.00338866
-0.00313561
-0.00290349
-0.0026749
-0.00244002
-0.00222488
-0.00201246
-0.00181672
-0.00162961
-0.00142681
-0.00125156
-0.00106457
-0.000885876
0.000636505
0.00120446
0.00188039
0.00260557
0.00328622
0.00393454
0.004551
0.00513083
0.00567484
0.00618704
0.00667137
0.00713147
0.00756788
0.00798312
0.00838485
0.00877577
0.009155
0.00952851
0.00989669
0.0102598
0.0106212
0.0109819
0.0113411
0.0116981
0.0120506
0.0124021
0.0127538
0.0131018
0.0134443
0.0137832
0.0141161
0.0144383
0.0147565
0.0150671
0.0153656
0.0156556
0.0159322
0.016198
0.0164515
0.0166883
0.0169141
0.0171244
0.0173197
0.0174978
0.0176613
0.0178063
0.0179339
0.0180453
0.0181384
0.0182142
0.0182722
0.0183117
0.0183336
0.0183376
0.0183229
0.0182911
0.01824
0.018171
0.0180824
0.0179778
0.0178518
0.0177075
0.0175439
0.0173612
0.0171596
0.0169387
0.0166965
0.0164379
0.0161582
0.0158573
0.0155404
0.0152038
0.0148497
0.0144753
0.0140808
0.013675
0.0132501
0.0128069
0.0123463
0.0118755
0.0113889
0.0108877
0.0103735
0.00984915
0.00930961
0.00876375
0.00821021
0.00764932
0.00707893
0.00650778
0.0059322
0.0053536
0.00477219
0.00418719
0.00360513
0.00302741
0.0024478
0.0018768
0.00131082
0.000751688
0.00019629
-0.000345017
-0.000880034
-0.0014009
-0.00191395
-0.0024106
-0.00289557
-0.00336607
-0.00382344
-0.0042629
-0.00469195
-0.00509684
-0.00548663
-0.00585427
-0.00620862
-0.00654673
-0.00686384
-0.00715847
-0.00744195
-0.00770305
-0.00794225
-0.0081657
-0.00836031
-0.00854688
-0.00870713
-0.00884955
-0.00898181
-0.00908533
-0.00917189
-0.00923533
-0.00929424
-0.00932651
-0.00934291
-0.00933599
-0.00931954
-0.00928618
-0.00923581
-0.00916801
-0.00908833
-0.00899243
-0.00887961
-0.00874779
-0.0086109
-0.00846112
-0.00830362
-0.0081309
-0.00795231
-0.00775976
-0.00756838
-0.0073549
-0.00714314
-0.00691978
-0.00669535
-0.00646885
-0.00623067
-0.00600171
-0.00575538
-0.00550597
-0.00525816
-0.00501435
-0.004773
-0.00451839
-0.00427581
-0.00402468
-0.00377601
-0.00353699
-0.0032975
-0.00306799
-0.00282986
-0.00261367
-0.00239746
-0.00217239
-0.00196847
-0.00176403
-0.00158668
-0.00140788
-0.00122075
-0.00105491
-0.000884547
-0.000726646
0.000538684
0.000920967
0.00148628
0.00208815
0.00265494
0.00318571
0.0036844
0.00415183
0.00459033
0.00500547
0.00539706
0.00576892
0.00612541
0.00646997
0.00680595
0.0071358
0.00746058
0.00778264
0.00809959
0.00841288
0.00872698
0.00904213
0.00935356
0.00966353
0.0099718
0.0102785
0.0105815
0.0108765
0.0111696
0.0114601
0.011745
0.0120216
0.0122939
0.0125588
0.0128131
0.0130595
0.0132972
0.0135243
0.0137399
0.0139433
0.0141369
0.0143167
0.0144848
0.014638
0.0147794
0.0149056
0.0150168
0.0151135
0.0151956
0.0152628
0.0153149
0.0153514
0.0153727
0.0153786
0.0153689
0.0153439
0.0153014
0.0152436
0.0151698
0.0150802
0.0149714
0.014847
0.0147064
0.0145477
0.0143718
0.0141787
0.0139666
0.0137384
0.0134909
0.0132265
0.0129459
0.0126471
0.0123306
0.0119985
0.0116489
0.0112858
0.0109032
0.0105081
0.0100987
0.00967878
0.00924244
0.0087951
0.0083333
0.00786312
0.0073846
0.00689721
0.00640191
0.00589662
0.00538667
0.00487237
0.0043568
0.00383842
0.00332199
0.00280061
0.00228121
0.00176649
0.00125185
0.00074361
0.000243211
-0.000252511
-0.000744893
-0.00122203
-0.00169455
-0.00215271
-0.0026064
-0.00304344
-0.00346944
-0.00388216
-0.00428223
-0.00466283
-0.00503706
-0.00538904
-0.0057305
-0.00605155
-0.00635843
-0.0066513
-0.00692197
-0.00717301
-0.00741071
-0.00762962
-0.00783191
-0.00802086
-0.00818105
-0.00833392
-0.00846109
-0.00857476
-0.00867871
-0.00875217
-0.00881555
-0.00886142
-0.00889478
-0.00890485
-0.00890627
-0.00888447
-0.00885292
-0.00880331
-0.0087415
-0.00865859
-0.00856873
-0.00847141
-0.00835326
-0.00821923
-0.00808086
-0.00792651
-0.00776407
-0.00759009
-0.00741141
-0.00722456
-0.00703506
-0.00682521
-0.00661969
-0.00640172
-0.00618056
-0.00596207
-0.00572747
-0.00550417
-0.00526423
-0.00503016
-0.00479282
-0.00454948
-0.0043168
-0.00407512
-0.00384616
-0.00360716
-0.00336953
-0.00314268
-0.00291162
-0.00269474
-0.00246833
-0.00226212
-0.00205777
-0.00185387
-0.00166232
-0.0014746
-0.00130208
-0.00113499
-0.000958854
-0.000810588
-0.000654016
-0.000515598
0.000453123
0.000637845
0.0010836
0.00155839
0.00199017
0.00238113
0.0027474
0.00309328
0.0034221
0.00373726
0.00403697
0.00432606
0.00460497
0.00487561
0.00514198
0.00540409
0.00566645
0.00592962
0.00618903
0.00644943
0.00671075
0.00697098
0.0072274
0.00748317
0.00773584
0.00798707
0.0082361
0.00847913
0.00871892
0.00895578
0.00918686
0.00940964
0.00963032
0.00984505
0.010052
0.0102526
0.0104455
0.0106296
0.0108076
0.0109753
0.0111351
0.0112841
0.0114247
0.0115526
0.0116715
0.011778
0.0118729
0.0119563
0.012029
0.0120893
0.0121369
0.0121721
0.0121948
0.0122047
0.0122012
0.0121847
0.0121543
0.0121103
0.0120517
0.0119799
0.0118923
0.0117916
0.0116761
0.0115446
0.0113983
0.0112364
0.0110563
0.0108626
0.0106524
0.0104264
0.0101844
0.00992809
0.00965226
0.00936654
0.00906279
0.00874684
0.00841521
0.0080688
0.00771281
0.00734503
0.00696435
0.00657533
0.00617331
0.00576631
0.0053466
0.00491953
0.00448583
0.00404544
0.00360402
0.00315952
0.00271343
0.00226153
0.00181344
0.00135912
0.000908485
0.00046323
1.77442e-05
-0.000420752
-0.000850784
-0.00128136
-0.00170121
-0.00211019
-0.0025165
-0.0029101
-0.00329731
-0.00366905
-0.0040318
-0.00438242
-0.00472099
-0.00504222
-0.00535899
-0.00565286
-0.00594125
-0.00621081
-0.00646592
-0.00670406
-0.00693099
-0.00713744
-0.00732774
-0.00750318
-0.00766578
-0.00781452
-0.00793644
-0.00805588
-0.00815222
-0.00823419
-0.00830864
-0.00835744
-0.00839567
-0.00841822
-0.00842615
-0.00841455
-0.00840261
-0.00836509
-0.00831749
-0.00825543
-0.00818261
-0.00808884
-0.00798896
-0.00788795
-0.00776077
-0.00762646
-0.0074878
-0.00733003