/*--------------------------------*- C++ -*----------------------------------*\
  =========                 |
  \\      /  F ield         | OpenFOAM: The Open Source CFD Toolbox
   \\    /   O peration     | Website:  https://openfoam.org
    \\  /    A nd           | Version:  8
     \\/     M anipulation  |
\*---------------------------------------------------------------------------*/
FoamFile
{
    version     2.0;
    format      ascii;
    class       volScalarField;
    location    "200";
    object      upod_3;
}
// * * * * * * * * * * * * * * * * * * * * * * * * * * * * * * * * * * * * * //

dimensions      [0 1 -1 0 0 0 0];

internalField   nonuniform List<scalar> 
12225
(
-0.00383935
-0.000712714
-0.000526607
0.000954981
0.00138648
0.00154725
0.00169597
0.00194289
0.00230602
0.00268642
0.00305308
0.00329445
0.00342023
0.00320779
0.00299515
0.00019772
-0.00109546
-0.00661093
-0.00387175
-0.00155813
-0.00103671
0.000911328
0.0022779
0.00337206
0.00422756
0.00493905
0.00542521
0.00581366
0.00622652
0.00621982
0.00611933
0.00575861
0.0049737
0.00423875
0.00124138
-0.00126594
-0.00361318
-0.00209534
-0.00131695
0.000505543
0.00180235
0.00288371
0.00375184
0.00447856
0.00500876
0.00546336
0.00587234
0.00594419
0.00587312
0.00557812
0.00496891
0.00433665
0.00243087
-0.00040231
-0.0034129
-0.00243297
-0.00153795
0.000236565
0.0014831
0.00252938
0.00337336
0.00407614
0.00461146
0.00508199
0.00545865
0.00560956
0.00560047
0.00540417
0.00494363
0.00441608
0.00331009
0.00141958
-0.00326708
-0.00258503
-0.00177605
-4.69705e-05
0.00117071
0.00219996
0.00303021
0.003715
0.00424823
0.00470799
0.00505891
0.00524335
0.00527431
0.00514529
0.00480138
0.00438113
0.00370023
0.00285804
-0.00316293
-0.00263684
-0.00204771
-0.000400587
0.000776863
0.00179312
0.00261892
0.00330045
0.00382923
0.00427757
0.00461363
0.00481269
0.00486433
0.00477419
0.00452083
0.00420797
0.00381582
0.0035451
-0.00310568
-0.00263807
-0.00233626
-0.000825054
0.000282124
0.00127125
0.00208808
0.00276597
0.00328675
0.00372803
0.00405447
0.00425887
0.00431832
0.00425361
0.00407621
0.00386263
0.00369304
0.00371642
-0.00305314
-0.00266393
-0.0026266
-0.00129319
-0.000290496
0.000644898
0.00143341
0.00209532
0.00260335
0.00303745
0.00335165
0.00354762
0.00361424
0.00358053
0.00347453
0.0033462
0.00336486
0.00353087
-0.00299241
-0.00272201
-0.002892
-0.00175884
-0.000895242
-4.27936e-05
0.000695347
0.00132948
0.00181524
0.00222562
0.00252318
0.0027079
0.00278554
0.00278721
0.00274215
0.00269313
0.00284742
0.00309022
-0.00294175
-0.00279976
-0.00312331
-0.0021877
-0.00147836
-0.00072353
-4.34008e-05
0.000554383
0.0010062
0.00138146
0.00165922
0.001836
0.00192509
0.00195738
0.00195441
0.00197436
0.00221805
0.00249634
-0.00291508
-0.00292816
-0.0032735
-0.00247712
-0.00190516
-0.00124696
-0.000631241
-8.24425e-05
0.000345837
0.000697722
0.000958201
0.00112622
0.00122098
0.0012674
0.00129034
0.00134938
0.00162947
0.00193691
-0.00295406
-0.00270366
-0.00282603
-0.00219387
-0.00181766
-0.00133952
-0.000899144
-0.0005266
-0.000242047
-1.97839e-05
0.000125312
0.000198322
0.00021618
0.000195335
0.000175626
0.000180998
0.000404392
0.00056905
-0.00287739
-0.0025475
-0.0025411
-0.00194211
-0.00180585
-0.00159328
-0.00142174
-0.00130958
-0.0012633
-0.00125677
-0.001294
-0.00137489
-0.00148762
-0.00161266
-0.00170868
-0.00179591
-0.00160678
-0.00171533
-0.00267904
-0.00278279
-0.00305496
-0.00255773
-0.00257222
-0.00252765
-0.00253566
-0.0025986
-0.002732
-0.00289435
-0.00307842
-0.00328359
-0.00348719
-0.00367319
-0.00381556
-0.00393808
-0.00370214
-0.00386078
-0.00245209
-0.00275836
-0.00355869
-0.00348097
-0.0037518
-0.00390365
-0.00407589
-0.00428365
-0.00453927
-0.00480778
-0.00508278
-0.00535623
-0.00560141
-0.00580542
-0.00594475
-0.00604827
-0.00574169
-0.00589524
-0.00228388
-0.00247556
-0.00360737
-0.00402908
-0.00469251
-0.00516142
-0.00556544
-0.00594664
-0.00632088
-0.00667498
-0.00700547
-0.00730487
-0.00755072
-0.00773261
-0.00783568
-0.00789728
-0.00751656
-0.00759529
-0.00221784
-0.00210596
-0.00326708
-0.00401214
-0.00500151
-0.00577076
-0.0064172
-0.00699064
-0.00750556
-0.00796319
-0.0083601
-0.00868193
-0.00892305
-0.00908412
-0.00915575
-0.00919841
-0.008765
-0.00885187
-0.00224451
-0.00174821
-0.00279484
-0.00366643
-0.00483479
-0.0057955
-0.00661464
-0.00734182
-0.00797334
-0.00850537
-0.0089448
-0.00929108
-0.00953858
-0.00969039
-0.00974927
-0.00978242
-0.009309
-0.00942642
-0.00226134
-0.00157526
-0.00248514
-0.00332147
-0.00450939
-0.00551636
-0.00638242
-0.00712822
-0.00774917
-0.00825226
-0.00864855
-0.00894643
-0.00914595
-0.00925629
-0.0092833
-0.00929276
-0.00880769
-0.00895714
-0.00234157
-0.00181786
-0.00256672
-0.00304288
-0.00391213
-0.00463272
-0.00525402
-0.00578326
-0.00622317
-0.00657762
-0.00685259
-0.00705301
-0.00718387
-0.00725253
-0.00726207
-0.00727149
-0.00684932
-0.00697416
-0.00237655
-0.00206071
-0.00280438
-0.00307119
-0.00370611
-0.00418501
-0.00458313
-0.00491442
-0.00518569
-0.00540001
-0.00555902
-0.00566278
-0.0057144
-0.00572194
-0.00568391
-0.0056549
-0.00525086
-0.00530223
-0.00242483
-0.00227743
-0.00303986
-0.00313473
-0.00354705
-0.00378553
-0.00395958
-0.00408389
-0.00417609
-0.00422926
-0.00424488
-0.00422493
-0.0041712
-0.00409178
-0.00398452
-0.00389392
-0.00348418
-0.00347741
-0.0025029
-0.00247853
-0.0032051
-0.00306425
-0.00320329
-0.003168
-0.00309147
-0.00298676
-0.00287694
-0.00274751
-0.00260025
-0.00244053
-0.00227261
-0.00209678
-0.00191842
-0.00175751
-0.00134317
-0.00124684
-0.00261593
-0.00263726
-0.00321758
-0.0027565
-0.00258068
-0.00226185
-0.00192982
-0.00159871
-0.00129248
-0.000990795
-0.000695092
-0.000412261
-0.000143002
0.00011283
0.000351792
0.000561713
0.000961973
0.00109582
-0.00275556
-0.0027281
-0.00302945
-0.00220445
-0.00172165
-0.00116109
-0.000621395
-0.000120001
0.000335501
0.000766898
0.00116928
0.00154337
0.001891
0.00221036
0.0025027
0.00275694
0.003143
0.00334444
-0.00290056
-0.00273538
-0.00266313
-0.00153651
-0.000824433
-0.00010552
0.000563833
0.00116039
0.00171354
0.00223156
0.00271058
0.0031533
0.00356244
0.0039352
0.00428161
0.00458432
0.004964
0.0052653
-0.00305394
-0.00264937
-0.00222087
-0.000910809
-6.51806e-05
0.000745547
0.00148853
0.00216282
0.00278034
0.00334858
0.00388925
0.0043778
0.00482608
0.00524747
0.00563445
0.00595998
0.00634926
0.00669259
-0.00325301
-0.00240713
-0.00182226
-0.000407667
0.000546887
0.0014563
0.00228382
0.00307655
0.00373758
0.00434916
0.00497873
0.00548433
0.00594856
0.00643447
0.00682698
0.00715159
0.00755063
0.00796232
-0.00357782
-0.00221845
-0.00159271
7.31409e-05
0.00125023
0.00235767
0.00333812
0.00433265
0.00503674
0.00569991
0.00648623
0.00697365
0.00744138
0.00805831
0.00841554
0.00869508
0.00918571
0.00969303
-0.00333704
-0.00167292
-0.000733335
0.000923785
0.00176193
0.00251359
0.00320724
0.00393028
0.00454643
0.00515906
0.00578713
0.00631308
0.00682536
0.00734864
0.00779061
0.0081876
0.00870376
0.00943874
0.000378353
0.000765168
0.000702796
0.000193932
-0.000670029
-0.00188777
-0.00332525
-0.00488078
-0.00652436
-0.00816805
-0.0098287
-0.011476
-0.0130806
-0.0146749
-0.0162335
-0.0177878
-0.0193348
-0.0208726
-0.0223691
-0.0237966
-0.025106
-0.0262278
-0.0271212
-0.0279144
-0.0284699
-0.028819
-0.0289643
-0.028921
-0.028712
-0.0283574
-0.0278857
-0.0273133
-0.0266643
-0.0259525
-0.0251899
-0.0243924
-0.0235678
-0.0227316
-0.021882
-0.0210299
-0.0201716
-0.0193148
-0.0184468
-0.0175772
-0.0166996
-0.0158193
-0.0149211
-0.0140202
-0.0131036
-0.0121793
-0.0112292
-0.0102793
-0.00930696
-0.0083281
-0.00733119
-0.00633594
-0.00531389
-0.0042857
-0.00324778
-0.00220919
-0.00115382
-0.0001039
0.000949359
0.00199938
0.00305938
0.00410042
0.00514611
0.00618175
0.0072142
0.00822438
0.00923234
0.0102173
0.0111858
0.012134
0.0130745
0.0139701
0.0148614
0.0157132
0.0165414
0.0173214
0.0180767
0.0187817
0.0194507
0.0200731
0.020654
0.021199
0.0216875
0.0221172
0.022492
0.0227889
0.0230389
0.0232352
0.0233967
0.0235025
0.0235522
0.0235473
0.0234697
0.0233488
0.0231484
0.0229066
0.0225947
0.0222352
0.0218049
0.0213384
0.0208007
0.0202164
0.0195913
0.0188943
0.0181568
0.0173771
0.0165401
0.0156727
0.014756
0.0138045
0.0128078
0.0118021
0.010749
0.00967716
0.00859483
0.00747628
0.00635058
0.00520051
0.00404109
0.00288574
0.00171875
0.000558182
-0.000600694
-0.00174228
-0.00287111
-0.00401075
-0.0051156
-0.0062156
-0.00724727
-0.00830359
-0.00928044
-0.0102673
-0.0111912
-0.0120736
-0.012915
-0.0137474
-0.0145182
-0.0152861
-0.015964
-0.0166313
-0.0172204
-0.0177723
-0.0182926
-0.0187486
-0.0191567
-0.0195104
-0.0198579
-0.0201019
-0.0203094
-0.0204867
-0.0206465
-0.0206881
-0.0207404
-0.0207047
-0.0206213
-0.0205823
-0.0204042
-0.020257
-0.0200053
-0.0197993
-0.019498
-0.0192089
-0.0188939
-0.0184976
-0.0181574
-0.0177865
-0.0173648
-0.0168964
-0.0165426
-0.0160233
-0.0156154
-0.015209
-0.0147708
-0.0144285
-0.0138608
-0.0130822
-0.000458307
-0.00104737
-0.00214464
-0.00358507
-0.0051663
-0.00687217
-0.00866121
-0.0104939
-0.012336
-0.0141596
-0.0159332
-0.0176349
-0.0192457
-0.020736
-0.0220891
-0.0232818
-0.0242876
-0.0251008
-0.0257208
-0.0261364
-0.0263611
-0.0263927
-0.0262439
-0.0259288
-0.0254753
-0.0249159
-0.0242693
-0.023564
-0.0228122
-0.0220391
-0.0212521
-0.0204664
-0.0196865
-0.0189242
-0.0181709
-0.0174367
-0.0167109
-0.0159939
-0.0152795
-0.0145609
-0.0138451
-0.0131183
-0.0123848
-0.0116389
-0.0108857
-0.0101128
-0.00932603
-0.00852757
-0.00770459
-0.00687053
-0.00601481
-0.00514462
-0.00425561
-0.00335373
-0.00243368
-0.00150093
-0.000552949
0.000400313
0.00136567
0.00234877
0.00332374
0.00431266
0.00529893
0.00629581
0.0072823
0.0082688
0.00925058
0.0102223
0.0111952
0.012146
0.0130823
0.0140074
0.0149083
0.0157998
0.0166721
0.0175125
0.0183302
0.0191133
0.0198729
0.0205794
0.0212736
0.0219177
0.022511
0.0230726
0.0235775
0.0240503
0.0244629
0.0248294
0.0251486
0.0253905
0.0255892
0.0257488
0.0258605
0.0258835
0.0258836
0.0258349
0.0256791
0.0255197
0.0252561
0.0249828
0.0246127
0.0242296
0.0237455
0.0232648
0.0226671
0.0220417
0.0214015
0.0206667
0.0198844
0.0191179
0.0182326
0.0173349
0.0164271
0.0155
0.0144655
0.0134599
0.0123776
0.0113095
0.010235
0.00905346
0.00791283
0.00673696
0.0055769
0.00446382
0.0033255
0.00223104
0.000997671
-0.000142131
-0.00122148
-0.00229659
-0.00334339
-0.00447561
-0.00545197
-0.00653055
-0.00742782
-0.00844651
-0.00937615
-0.0102513
-0.0110712
-0.0118467
-0.012497
-0.0131261
-0.0137015
-0.0144143
-0.0149224
-0.0153208
-0.0158768
-0.0163142
-0.0166359
-0.0168024
-0.0171917
-0.017434
-0.017508
-0.0175055
-0.0176929
-0.017599
-0.0177179
-0.0175761
-0.0173362
-0.0173292
-0.0170422
-0.016917
-0.0165766
-0.0163618
-0.0159321
-0.0156811
-0.0153585
-0.0148217
-0.0144291
-0.0140632
-0.0135019
-0.0128679
-0.0125668
-0.0118727
-0.0115428
-0.0110377
-0.0101558
-0.00984922
-0.00916796
-0.00864112
-0.001152
-0.00238953
-0.00404142
-0.00585597
-0.00765281
-0.00941598
-0.011123
-0.0127543
-0.0142962
-0.0157429
-0.0170761
-0.0182754
-0.0193307
-0.0202341
-0.0209747
-0.0215373
-0.0219195
-0.0221172
-0.0221341
-0.0219902
-0.0217349
-0.0213938
-0.0209725
-0.0205026
-0.0200082
-0.019504
-0.018998
-0.0185081
-0.0180255
-0.0175604
-0.0171071
-0.0166589
-0.0162019
-0.0157526
-0.0152884
-0.0148191
-0.0143284
-0.0138205
-0.0132962
-0.0127508
-0.0121874
-0.0115834
-0.010961
-0.0103182
-0.00965767
-0.0089603
-0.00824193
-0.00751297
-0.00674816
-0.00597192
-0.00517254
-0.00434548
-0.00349586
-0.00262883
-0.00172991
-0.000823265
9.18942e-05
0.00100867
0.0019369
0.00289195
0.0038403
0.00480364
0.00575894
0.00672737
0.00768111
0.00863279
0.00959747
0.010542
0.0114893
0.0124121
0.0133362
0.0142428
0.0151229
0.0159733
0.0168059
0.0176304
0.018418
0.0191887
0.019916
0.0206005
0.0212753
0.0218943
0.0224856
0.0230352
0.0235312
0.0239708
0.024384
0.0247401
0.0250244
0.0252674
0.0254443
0.0255977
0.0256973
0.0257156
0.0257099
0.0256491
0.0254928
0.0253308
0.0250852
0.0247994
0.0244184
0.0240115
0.0235331
0.0230498
0.0224726
0.0218508
0.0211788
0.0204797
0.0197013
0.0189328
0.0180763
0.0171892
0.0162661
0.0153487
0.0143577
0.0133451
0.0123067
0.0112389
0.0101569
0.00903132
0.00797093
0.0068524
0.00573746
0.00461321
0.00345299
0.00239415
0.00123705
0.000163487
-0.000913618
-0.00194736
-0.00295925
-0.00400921
-0.00497397
-0.00597122
-0.0068334
-0.00774789
-0.00859043
-0.00939666
-0.01017
-0.0108929
-0.0115625
-0.0121405
-0.0126981
-0.0133202
-0.0138107
-0.0141535
-0.0145887
-0.0149352
-0.0152753
-0.0154051
-0.0156504
-0.0158527
-0.0159541
-0.0159097
-0.015983
-0.0158599
-0.0158869
-0.0157459
-0.0155218
-0.0153675
-0.0150725
-0.0148424
-0.0145494
-0.0142161
-0.0137854
-0.0134292
-0.0130277
-0.0125719
-0.0120196
-0.0116104
-0.0110899
-0.010542
-0.0101041
-0.00947381
-0.00912259
-0.00861341
-0.00776377
-0.00743597
-0.00672564
-0.00620435
-0.00149807
-0.00286183
-0.00462398
-0.00641055
-0.00809404
-0.00966195
-0.0110987
-0.0124027
-0.0135725
-0.014608
-0.0155039
-0.0162568
-0.0168693
-0.0173407
-0.0176676
-0.0178572
-0.017923
-0.0178721
-0.0177246
-0.017509
-0.0172541
-0.0169789
-0.0166936
-0.0164165
-0.0161572
-0.0159187
-0.0157001
-0.0154962
-0.0152947
-0.015098
-0.0148949
-0.0146736
-0.0144287
-0.0141634
-0.0138703
-0.0135532
-0.0132018
-0.0128116
-0.012384
-0.0119235
-0.0114341
-0.0109054
-0.0103517
-0.00976246
-0.00914271
-0.00849565
-0.00781919
-0.00711973
-0.0063886
-0.00563747
-0.00486411
-0.00406828
-0.00324951
-0.00241568
-0.00156236
-0.000695236
0.000187625
0.00108455
0.00199052
0.0029085
0.00382978
0.00476
0.00569045
0.00662552
0.00755847
0.00848724
0.00941914
0.0103364
0.0112495
0.0121459
0.0130378
0.0139103
0.0147699
0.0156058
0.0164217
0.017216
0.0179788
0.0187233
0.0194306
0.0201055
0.0207494
0.0213503
0.0219166
0.0224381
0.0229229
0.0233542
0.0237504
0.0240925
0.0243714
0.0246092
0.0247803
0.024916
0.0249981
0.0250258
0.0250064
0.0249368
0.024799
0.0246154
0.0243774
0.0240845
0.0237321
0.0233309
0.0228707
0.0223678
0.0218076
0.0212047
0.0205407
0.0198486
0.0190903
0.0183111
0.0174794
0.0166143
0.0157066
0.0147827
0.013818
0.0128232
0.0118178
0.0107762
0.0097274
0.00865537
0.00759727
0.00651476
0.00543441
0.00434336
0.00323659
0.00217285
0.00109418
5.28486e-05
-0.000996257
-0.0020019
-0.00299245
-0.00395794
-0.00489206
-0.00580692
-0.00666328
-0.00750061
-0.00828842
-0.0090335
-0.00974919
-0.0104215
-0.0110674
-0.0116366
-0.0121738
-0.0126714
-0.0131207
-0.0134907
-0.0138315
-0.0141124
-0.0143921
-0.014563
-0.0147027
-0.0148159
-0.0148987
-0.0148778
-0.0148572
-0.014756
-0.0146591
-0.0145032
-0.0143037
-0.0140805
-0.0137888
-0.0134664
-0.0131599
-0.0127754
-0.0123664
-0.0119425
-0.01147
-0.0110536
-0.0104726
-0.0099855
-0.00949202
-0.0089976
-0.00845959
-0.00788258
-0.00742441
-0.00687111
-0.00619335
-0.00572289
-0.00510152
-0.00462051
-0.00150266
-0.00270771
-0.00431822
-0.00587077
-0.00728409
-0.00855463
-0.00967817
-0.0106608
-0.011508
-0.0122238
-0.0128121
-0.0132801
-0.0136367
-0.0138889
-0.0140481
-0.0141287
-0.0141423
-0.0141061
-0.0140392
-0.0139575
-0.0138787
-0.0138128
-0.0137651
-0.0137388
-0.0137295
-0.0137341
-0.0137446
-0.0137507
-0.0137471
-0.0137255
-0.0136798
-0.0136001
-0.0134912
-0.013345
-0.0131562
-0.012927
-0.0126569
-0.0123437
-0.0119885
-0.011593
-0.0111587
-0.0106854
-0.0101772
-0.00963251
-0.00905627
-0.00844712
-0.00780739
-0.00714108
-0.00644658
-0.00572703
-0.00498315
-0.004218
-0.00343259
-0.00262894
-0.00180951
-0.000973323
-0.000122285
0.000743799
0.0016203
0.00250619
0.00340067
0.00429892
0.00520106
0.00610504
0.00700975
0.00791256
0.00881073
0.0097031
0.0105866
0.0114601
0.0123238
0.0131682
0.0139999
0.0148139
0.0156078
0.0163744
0.0171202
0.0178391
0.0185267
0.0191837
0.0198021
0.0203893
0.0209364
0.0214449
0.021909
0.0223322
0.0227113
0.0230419
0.0233204
0.023545
0.0237137
0.0238417
0.0239169
0.0239489
0.0239279
0.0238517
0.0237216
0.0235344
0.0233003
0.0230049
0.0226638
0.022271
0.021827
0.0213285
0.0207828
0.0201871
0.0195457
0.0188601
0.0181272
0.0173527
0.0165451
0.015699
0.0148199
0.0139074
0.012963
0.012003
0.0110203
0.0100106
0.00899431
0.00796185
0.00692118
0.00587332
0.00482121
0.00376888
0.00272394
0.0016772
0.00065597
-0.000361766
-0.00135632
-0.00233308
-0.00328179
-0.00420202
-0.00508987
-0.00595487
-0.00677187
-0.00755893
-0.0083056
-0.00901237
-0.00967615
-0.0103047
-0.010897
-0.0114428
-0.0119394
-0.0123752
-0.0127716
-0.0131287
-0.0134223
-0.0136677
-0.013878
-0.0140372
-0.0141381
-0.0141908
-0.0142268
-0.0142062
-0.0141415
-0.014028
-0.0138736
-0.013686
-0.013464
-0.0132109
-0.0129067
-0.0125707
-0.0122128
-0.0118247
-0.0114062
-0.0109667
-0.0104861
-0.0100301
-0.00950997
-0.00898733
-0.00847446
-0.00795144
-0.00740356
-0.00682877
-0.00627457
-0.00570824
-0.00513644
-0.00458537
-0.00402424
-0.00354286
-0.00132898
-0.00226187
-0.00358401
-0.00481661
-0.00591318
-0.00687951
-0.00772035
-0.00844445
-0.00905882
-0.00957029
-0.00998821
-0.0103245
-0.0105905
-0.0107968
-0.0109583
-0.011087
-0.0111938
-0.0112922
-0.0113947
-0.011509
-0.0116409
-0.0117906
-0.0119572
-0.0121358
-0.0123206
-0.0125063
-0.0126781
-0.0128314
-0.0129609
-0.0130578
-0.0131189
-0.0131371
-0.0131156
-0.0130476
-0.0129283
-0.0127642
-0.0125556
-0.012299
-0.0119979
-0.0116516
-0.0112622
-0.0108334
-0.0103662
-0.00985991
-0.00932191
-0.00874929
-0.008146
-0.0075138
-0.00685282
-0.00616691
-0.00545626
-0.00472376
-0.00397123
-0.00319972
-0.0024115
-0.00160697
-0.000787525
4.59849e-05
0.000889327
0.00174193
0.00260337
0.00347044
0.00434118
0.00521507
0.00608913
0.00696228
0.00782852
0.00869301
0.00954907
0.010396
0.0112307
0.0120512
0.0128539
0.0136427
0.0144124
0.0151584
0.0158839
0.0165796
0.0172449
0.0178823
0.0184843
0.019052
0.0195811
0.0200785
0.0205299
0.0209411
0.0213078
0.0216325
0.0219053
0.0221211
0.0222853
0.0224109
0.0224876
0.0225219
0.0224968
0.0224178
0.0222946
0.0221115
0.0218809
0.021596
0.0212626
0.0208791
0.0204423
0.0199591
0.0194347
0.0188509
0.0182324
0.017568
0.0168578
0.0161062
0.0153235
0.0144956
0.0136427
0.0127562
0.0118422
0.0109118
0.00996715
0.0089952
0.00800907
0.00700787
0.00600582
0.00499347
0.00398368
0.00296843
0.00196878
0.000958137
-1.65808e-05
-0.000994089
-0.00194034
-0.00288207
-0.00378451
-0.00466487
-0.00549755
-0.00631725
-0.00709023
-0.00783086
-0.00853578
-0.0092014
-0.00981837
-0.0104101
-0.0109549
-0.0114584
-0.0119116
-0.0123112
-0.0126654
-0.0129762
-0.0132358
-0.0134466
-0.0136181
-0.0137341
-0.0138063
-0.0138288
-0.0138365
-0.0137798
-0.0136904
-0.01355
-0.0133666
-0.0131503
-0.012904
-0.0126221
-0.0123089
-0.0119585
-0.0115803
-0.0111751
-0.0107462
-0.0102934
-0.00981357
-0.00932765
-0.00883566
-0.00831258
-0.00777865
-0.00723261
-0.00667816
-0.00610631
-0.00551426
-0.0049533
-0.00439273
-0.00382828
-0.00327493
-0.00279828
-0.00106845
-0.00172614
-0.00273422
-0.00364816
-0.0044519
-0.00515915
-0.00577779
-0.00631691
-0.00678446
-0.00718827
-0.00753853
-0.00784657
-0.00812431
-0.00838199
-0.00862992
-0.00887541
-0.00912682
-0.00939298
-0.00967513
-0.00997258
-0.0102862
-0.0106126
-0.0109468
-0.0112789
-0.0116026
-0.0119149
-0.012198
-0.0124519
-0.01267
-0.0128508
-0.0129856
-0.0130723
-0.0131108
-0.0131001
-0.0130368
-0.0129238
-0.0127602
-0.0125469
-0.0122892
-0.0119824
-0.0116312
-0.011239
-0.0108081
-0.0103365
-0.00983281
-0.00929534
-0.00872569
-0.0081282
-0.00750246
-0.00685196
-0.0061767
-0.00547955
-0.00476193
-0.00402557
-0.00327179
-0.00250257
-0.00171769
-0.000920245
-0.000112428
0.00070382
0.00153158
0.00236376
0.00319958
0.00403987
0.0048799
0.00572
0.00655613
0.00738946
0.00821305
0.00903009
0.00983255
0.0106233
0.011397
0.0121583
0.0129019
0.0136216
0.0143207
0.0149924
0.0156368
0.0162572
0.0168382
0.0173858
0.0178966
0.018374
0.0188144
0.0192153
0.0195715
0.01989
0.0201524
0.0203657
0.0205304
0.0206541
0.0207287
0.0207616
0.0207352
0.0206599
0.0205437
0.0203666
0.0201459
0.0198746
0.0195538
0.0191854
0.0187658
0.018297
0.0177927
0.0172311
0.0166327
0.0159888
0.0153077
0.0145837
0.0138299
0.0130344
0.0122176
0.0113656
0.0104901
0.00958846
0.00868004
0.00774862
0.00680101
0.00584558
0.00488057
0.0039072
0.00294255
0.00197295
0.00101919
5.23028e-05
-0.000880805
-0.00180892
-0.00271466
-0.00360846
-0.00446048
-0.0052983
-0.0060824
-0.00685275
-0.00758527
-0.0082704
-0.00892975
-0.00955452
-0.0101323
-0.0106851
-0.0111823
-0.0116392
-0.0120498
-0.0124093
-0.0127266
-0.0129959
-0.0132231
-0.0133978
-0.01353
-0.0136178
-0.0136626
-0.01366
-0.0136362
-0.0135366
-0.0134303
-0.0132667
-0.0130577
-0.0128206
-0.012555
-0.0122538
-0.0119289
-0.0115612
-0.0111683
-0.0107499
-0.0103085
-0.00984731
-0.00935739
-0.00885901
-0.00836992
-0.00785026
-0.00730456
-0.00675714
-0.00619311
-0.00562186
-0.00503674
-0.00447422
-0.00390978
-0.00333674
-0.00278261
-0.00229841
-0.000767891
-0.00119868
-0.0019208
-0.00256514
-0.0031387
-0.00365268
-0.00411509
-0.00453588
-0.00492357
-0.0052873
-0.00563377
-0.00597189
-0.00631381
-0.00666252
-0.00702293
-0.00739871
-0.00779314
-0.00821006
-0.00864437
-0.00909132
-0.00954653
-0.0100025
-0.0104537
-0.0108962
-0.0113184
-0.0117158
-0.012076
-0.0123993
-0.0126811
-0.0129195
-0.0131038
-0.0132373
-0.0133189
-0.013348
-0.0133214
-0.0132444
-0.0131154
-0.0129378
-0.012715
-0.0124425
-0.0121255
-0.0117664
-0.0113688
-0.010933
-0.0104657
-0.00996386
-0.00943019
-0.00887017
-0.0082821
-0.00766899
-0.00703175
-0.00637291
-0.00569501
-0.00499834
-0.00428415
-0.0035545
-0.00280914
-0.0020542
-0.00128613
-0.000509105
0.000279484
0.00106962
0.00186689
0.00266893
0.00346891
0.00426861
0.00506706
0.00586262
0.0066494
0.00742953
0.00819784
0.00895514
0.00969981
0.0104292
0.0111408
0.0118286
0.0124994
0.013145
0.0137644
0.0143611
0.0149222
0.0154537
0.0159473
0.0164051
0.016829
0.0172115
0.0175518
0.0178568
0.018112
0.0183212
0.0184819
0.0186027
0.0186714
0.0187015
0.0186807
0.0186176
0.0185105
0.0183433
0.0181309
0.0178689
0.017566
0.0172125
0.0168161
0.0163688
0.0158835
0.0153486
0.0147781
0.0141619
0.0135142
0.0128184
0.0120979
0.0113385
0.0105626
0.00974777
0.00891455
0.00805777
0.00718763
0.00629856
0.00539628
0.00449173
0.00356739
0.00264465
0.00171995
0.00080512
-9.50881e-05
-0.00100971
-0.00189804
-0.00277395
-0.00362475
-0.00446588
-0.00526666
-0.00605689
-0.00680464
-0.00752466
-0.00821094
-0.00884507
-0.00945407
-0.0100351
-0.0105695
-0.0110717
-0.0115287
-0.0119437
-0.0123142
-0.0126324
-0.0129113
-0.0131465
-0.0133433
-0.0134896
-0.0135866
-0.0136483
-0.0136607
-0.0136341
-0.0135706
-0.0134435
-0.0133112
-0.0131259
-0.0129024
-0.0126422
-0.012362
-0.0120423
-0.0117015
-0.0113254
-0.0109197
-0.0104964
-0.0100455
-0.0095791
-0.00908935
-0.00858102
-0.00808083
-0.00755252
-0.00700581
-0.00646666
-0.00589947
-0.00532666
-0.00475175
-0.00417677
-0.00362036
-0.00304221
-0.00249889
-0.00199874
-0.000523825
-0.000728515
-0.00122883
-0.00165867
-0.00205823
-0.00243668
-0.00280383
-0.00316362
-0.00352095
-0.00388518
-0.00426123
-0.00465867
-0.00508134
-0.00552354
-0.00599149
-0.00648673
-0.00700347
-0.00754028
-0.00808801
-0.00864115
-0.00919375
-0.0097403
-0.0102763
-0.0107925
-0.0112777
-0.0117285
-0.0121384
-0.0125049
-0.0128226
-0.013092
-0.0133086
-0.0134704
-0.0135803
-0.0136374
-0.0136388
-0.0135887
-0.0134867
-0.0133409
-0.0131471
-0.0129027
-0.0126206
-0.0122974
-0.0119363
-0.0115382
-0.0111086
-0.0106447
-0.0101501
-0.00962985
-0.00908223
-0.00851125
-0.00791742
-0.00730233
-0.00666893
-0.00601721
-0.00534817
-0.00466525
-0.00396731
-0.00325932
-0.00253693
-0.00180828
-0.00106789
-0.000324258
0.000427839
0.00118196
0.00193773
0.00269347
0.00344622
0.00419628
0.00494151
0.00567989
0.00640822
0.00712695
0.00783185
0.00852208
0.0091968
0.00984819
0.0104841
0.0110979
0.0116865
0.0122499
0.0127859
0.0132915
0.0137619
0.0141989
0.0146056
0.0149676
0.015293
0.0155786
0.0158271
0.0160238
0.0161764
0.0162929
0.0163636
0.0163992
0.0163811
0.0163159
0.0162142
0.0160562
0.0158553
0.0156125
0.0153305
0.0149926
0.0146165
0.0141953
0.0137364
0.0132286
0.0126852
0.0121018
0.011488
0.010834
0.0101582
0.00944081
0.00870311
0.00793153
0.0071411
0.00633336
0.00551434
0.00467265
0.00382133
0.00296379
0.0020936
0.00122714
0.000348636
-0.000511237
-0.00136188
-0.00221951
-0.00305071
-0.00386988
-0.00466292
-0.00545478
-0.0062028
-0.00693444
-0.00763234
-0.00830244
-0.00893703
-0.00952848
-0.0100927
-0.0106221
-0.0111038
-0.0115541
-0.0119698
-0.0123471
-0.0126767
-0.0129596
-0.0131959
-0.0133945
-0.0135529
-0.0136736
-0.0137343
-0.0137726
-0.0137557
-0.0137039
-0.0136102
-0.0134734
-0.0133115
-0.0130973
-0.0128599
-0.0125901
-0.0122963
-0.0119591
-0.011599
-0.0112197
-0.0108019
-0.0103762
-0.00992385
-0.0094503
-0.00896088
-0.0084472
-0.00794289
-0.007403
-0.00685558
-0.00631761
-0.00575343
-0.00519109
-0.00461261
-0.00403278
-0.00349023
-0.00292282
-0.00238824
-0.00187635
-0.000324619
-0.000359165
-0.000675925
-0.000948549
-0.00122712
-0.00152087
-0.00183265
-0.00216301
-0.00251622
-0.0028994
-0.0033176
-0.00377334
-0.0042632
-0.00478455
-0.00534085
-0.00592712
-0.00653242
-0.00715516
-0.00778543
-0.00841367
-0.00903536
-0.00964294
-0.0102278
-0.0107818
-0.0112971
-0.0117739
-0.0122106
-0.0125996
-0.0129368
-0.0132243
-0.0134592
-0.0136352
-0.0137636
-0.0138412
-0.0138638
-0.0138388
-0.0137624
-0.013641
-0.0134758
-0.0132633
-0.0130149
-0.0127272
-0.0124037
-0.0120446
-0.0116556
-0.0112342
-0.0107838
-0.010309
-0.00980826
-0.00928539
-0.00874112
-0.00817613
-0.00759327
-0.00699374
-0.00637749
-0.00574859
-0.00510499
-0.00445023
-0.00378292
-0.00311023
-0.00242545
-0.00173487
-0.0010384
-0.00033815
0.000363632
0.00106613
0.00177009
0.00246694
0.00316158
0.00385252
0.00453079
0.0052
0.00585597
0.00650145
0.00713507
0.00774253
0.00833457
0.0089087
0.00946285
0.00998538
0.0104836
0.0109555
0.0113981
0.0118073
0.0121899
0.0125331
0.0128391
0.0131073
0.01334
0.0135242
0.0136684
0.0137738
0.0138415
0.0138729
0.0138587
0.0137982
0.0137018
0.0135562
0.0133683
0.0131374
0.0128702
0.0125534
0.0122004
0.0118021
0.0113703
0.010895
0.0103856
0.00984077
0.00926511
0.00865448
0.00802257
0.00735198
0.00665896
0.00593606
0.00519923
0.00444718
0.00367585
0.00288595
0.00209681
0.00129506
0.000484652
-0.000322611
-0.00114287
-0.00194271
-0.00274587
-0.00353709
-0.00430279
-0.00506725
-0.00581095
-0.00654061
-0.00722684
-0.0079
-0.00854271
-0.0091645
-0.00974359
-0.0102896
-0.010802
-0.0112813
-0.0117187
-0.0121204
-0.0124875
-0.0128235
-0.0131085
-0.0133539
-0.0135533
-0.0137185
-0.0138368
-0.0139214
-0.0139516
-0.0139628
-0.0139219
-0.0138502
-0.0137344
-0.0135777
-0.0133961
-0.0131616
-0.0129155
-0.0126391
-0.0123279
-0.0119806
-0.0116022
-0.0112183
-0.0107943
-0.0103631
-0.00991104
-0.0094304
-0.00893848
-0.00842283
-0.00791351
-0.00736834
-0.00682215
-0.00629043
-0.00573174
-0.00518037
-0.00459791
-0.00402969
-0.00348804
-0.00293115
-0.00239717
-0.00187615
-0.000160626
-6.28212e-05
-0.000236306
-0.000419069
-0.000630747
-0.000868487
-0.00114006
-0.00145177
-0.00180777
-0.00221474
-0.0026685
-0.00316821
-0.0037126
-0.00429727
-0.00491693
-0.00556428
-0.00623001
-0.00690673
-0.00758054
-0.00824454
-0.00889701
-0.00953045
-0.0101321
-0.0106997
-0.011229
-0.011717
-0.0121581
-0.0125448
-0.0128851
-0.013178
-0.0134199
-0.0136076
-0.0137486
-0.0138402
-0.0138799
-0.013874
-0.0138238
-0.0137296
-0.0135927
-0.0134149
-0.0132025
-0.0129526
-0.0126706
-0.0123549
-0.0120122
-0.0116398
-0.0112403
-0.0108166
-0.01037
-0.00990243
-0.00941482
-0.00890828
-0.00838469
-0.00784516
-0.00729088
-0.0067235
-0.0061413
-0.00554882
-0.00494609
-0.00433527
-0.00371274
-0.00308499
-0.00245287
-0.00181539
-0.00117567
-0.000535153
0.000107035
0.000744597
0.00138075
0.00201012
0.00263059
0.00324323
0.00384654
0.00443619
0.00501375
0.00557235
0.00611968
0.00664458
0.00714857
0.00762538
0.00808314
0.00851354
0.00892115
0.00929667
0.00963975
0.00995115
0.01023
0.0104793
0.0106903
0.0108623
0.0109936
0.0110901
0.0111461
0.0111713
0.0111564
0.0110982
0.0110047
0.0108686
0.0106893
0.0104732
0.0102241
0.00992655
0.00959802
0.00922606
0.00882763
0.00838701
0.00791467
0.00740988
0.00687617
0.00630599
0.00572111
0.00510055
0.00446419
0.0038003
0.00312077
0.00242869
0.00171461
0.000985036
0.000251795
-0.000490361
-0.0012353
-0.00197548
-0.0027307
-0.00346687
-0.00420791
-0.00493333
-0.00563528
-0.00634161
-0.0070203
-0.00767992
-0.00831108
-0.00892785
-0.00950721
-0.0100691
-0.0105925
-0.0110885
-0.0115477
-0.011983
-0.0123731
-0.0127187
-0.0130391
-0.0133279
-0.0135682
-0.0137774
-0.0139447
-0.0140761
-0.0141625
-0.0142103
-0.0142127
-0.014197
-0.0141286
-0.0140338
-0.013901
-0.0137233
-0.0135302
-0.0132837
-0.013027
-0.0127294
-0.0124066
-0.0120646
-0.0116815
-0.0112884
-0.0108561
-0.0104205
-0.00996725
-0.00948518
-0.00899859
-0.00848322
-0.00797665
-0.00743791
-0.0068964
-0.00635667
-0.00580403
-0.00525324
-0.00468908
-0.0041295
-0.00359702
-0.0030404
-0.00251208
-0.00198606
-3.95475e-05
0.000152811
6.40378e-05
-6.95849e-05
-0.00022467
-0.000404922
-0.000635151
-0.000925345
-0.00127985
-0.00170009
-0.00217774
-0.00271104
-0.00329075
-0.00390822
-0.00455764
-0.00522759
-0.00591337
-0.00660599
-0.00728932
-0.00796232
-0.00861839
-0.00924783
-0.00984243
-0.0104022
-0.0109206
-0.0113977
-0.0118311
-0.012214
-0.0125503
-0.0128408
-0.013082
-0.0132713
-0.013419
-0.0135212
-0.0135774
-0.0135916
-0.0135643
-0.0134963
-0.0133939
-0.0132537
-0.0130816
-0.0128755
-0.0126415
-0.0123757
-0.0120852
-0.0117677
-0.0114258
-0.011062
-0.0106786
-0.0102754
-0.0098531
-0.00941373
-0.00895837
-0.00848822
-0.00800344
-0.00750613
-0.00699619
-0.00647527
-0.00594349
-0.00540389
-0.00485435
-0.00430036
-0.00374102
-0.00317599
-0.00260882
-0.00204007
-0.00146754
-0.000899813
-0.000334228
0.00022652
0.000781243
0.00132628
0.00186863
0.0023929
0.00290958
0.00340937
0.00389638
0.0043678
0.00481561
0.00524276
0.00565037
0.00603091
0.0063912
0.00671903
0.00702558
0.00730298
0.00755081
0.00776891
0.00794808
0.00809124
0.00819901
0.00828102
0.00832405
0.00834262
0.00832284
0.00826309
0.00817245
0.00804211
0.00787135
0.00767457
0.00743695
0.00715995
0.00685755
0.00651694
0.00614936
0.0057434
0.00531037
0.00484802
0.00435885
0.00383722
0.00330445
0.00273538
0.00215783
0.00155485
0.000935185
0.000297703
-0.000346722
-0.00100895