/*--------------------------------*- C++ -*----------------------------------*\
  =========                 |
  \\      /  F ield         | OpenFOAM: The Open Source CFD Toolbox
   \\    /   O peration     | Website:  https://openfoam.org
    \\  /    A nd           | Version:  8
     \\/     M anipulation  |
\*---------------------------------------------------------------------------*/
FoamFile
{
    version     2.0;
    format      ascii;
    class       volScalarField;
    location    "200";
    object      upod_1;
}
// * * * * * * * * * * * * * * * * * * * * * * * * * * * * * * * * * * * * * //

dimensions      [0 1 -1 0 0 0 0];

internalField   nonuniform List<scalar> 
12225
(
0.00844385
0.00696142
0.00678918
0.00610727
0.00579449
0.00563961
0.00551483
0.00533779
0.00511603
0.00487639
0.00462897
0.00439976
0.00416881
0.00399548
0.00361993
0.00408121
0.00321103
0.00363011
0.00856778
0.00767181
0.00752184
0.00676297
0.00615532
0.00566828
0.00526343
0.00489719
0.0046004
0.00433804
0.00406027
0.00392539
0.00379495
0.00373331
0.00378481
0.00380095
0.00444592
0.00539268
0.00843755
0.00784605
0.0076194
0.00693011
0.00639504
0.00595411
0.00558017
0.00523368
0.00494228
0.00466651
0.00439561
0.00423087
0.00408999
0.00399671
0.00398368
0.00393716
0.00435135
0.00544557
0.00835845
0.00797214
0.0076875
0.00701223
0.00651417
0.00610563
0.00575778
0.00543596
0.00515848
0.00489151
0.00464733
0.00446834
0.00432426
0.00422059
0.00419252
0.00417561
0.00439836
0.00509625
0.0082987
0.00802137
0.0077649
0.00710755
0.00662599
0.00622922
0.00589207
0.0055846
0.00531634
0.00506377
0.00484114
0.00466541
0.0045283
0.00443111
0.00440555
0.00441458
0.00455818
0.00491774
0.00825541
0.0080278
0.0078552
0.0072318
0.0067667
0.00637667
0.00604411
0.00574295
0.00548262
0.00524238
0.00503511
0.00486717
0.00474139
0.00465793
0.0046367
0.00465546
0.00474774
0.00492299
0.00823207
0.00801531
0.00795054
0.00738313
0.00694629
0.00656851
0.00624204
0.0059472
0.00569607
0.00546621
0.00527197
0.00511443
0.00500329
0.00493552
0.00491758
0.00493668
0.00498272
0.00505184
0.00821216
0.00801644
0.00804735
0.00755114
0.00715696
0.00680213
0.00649001
0.00620693
0.00596777
0.00574888
0.00556954
0.00542856
0.00533226
0.00527576
0.00525811
0.00527439
0.00527412
0.00528652
0.00818949
0.00803328
0.00813638
0.00771957
0.00738188
0.00706119
0.00677271
0.00650662
0.00628465
0.00608471
0.00592308
0.00580079
0.00571832
0.0056699
0.00565279
0.00566249
0.00562961
0.00561184
0.00817127
0.00806008
0.00821514
0.00787641
0.00760096
0.00731978
0.00705793
0.00681315
0.0066139
0.00643857
0.0062973
0.0061934
0.00612445
0.00608445
0.00607253
0.00607555
0.00602403
0.00599451
0.00816176
0.00810923
0.0082687
0.00798353
0.00776357
0.00752136
0.00728834
0.00707004
0.00689017
0.00673601
0.00661517
0.00653065
0.00647782
0.00645205
0.00645017
0.00645638
0.00640464
0.0063691
0.00817554
0.00803817
0.00811198
0.00788358
0.0077379
0.00756408
0.00739974
0.00725391
0.00713716
0.00704259
0.00697766
0.00694304
0.00693498
0.00695163
0.00698238
0.00702376
0.00700508
0.00702729
0.00814865
0.00797379
0.00799967
0.00778282
0.00772547
0.00765032
0.00758888
0.00754705
0.00752955
0.00752759
0.00754455
0.00758295
0.00764076
0.00771427
0.00779132
0.00788372
0.00789183
0.00802423
0.00807341
0.00805371
0.00817828
0.00800079
0.0079986
0.00798404
0.00799289
0.00802526
0.0080871
0.0081623
0.00824953
0.00835139
0.00846143
0.0085762
0.00868857
0.00880938
0.00881329
0.00897432
0.00798426
0.00804251
0.00835424
0.00833757
0.00843477
0.00849251
0.00856444
0.00865847
0.00877753
0.00890528
0.00904065
0.00918384
0.00932613
0.0094642
0.00959053
0.00971661
0.00970568
0.0098733
0.00791792
0.00794281
0.00836757
0.00853725
0.00878911
0.00896938
0.00912971
0.00929402
0.00946625
0.0096368
0.00980468
0.00996988
0.010125
0.0102662
0.0103888
0.0105053
0.0104691
0.010609
0.00788884
0.00781533
0.00824299
0.00853042
0.00891066
0.00920711
0.00945813
0.00969571
0.00992542
0.0101426
0.0103433
0.0105222
0.0106797
0.0108162
0.0109272
0.0110337
0.0109735
0.0111094
0.00789597
0.00769402
0.00807499
0.00840314
0.00885082
0.00922017
0.00953427
0.00982738
0.0100996
0.0103432
0.0105586
0.0107458
0.0109016
0.0110277
0.0111263
0.0112199
0.0111343
0.0112691
0.00790456
0.00763581
0.00796914
0.00827894
0.00872887
0.00911334
0.00944196
0.0097367
0.00999892
0.0102255
0.0104177
0.0105781
0.0107061
0.010805
0.0108776
0.0109463
0.0108392
0.0109659
0.00793423
0.00772185
0.00800098
0.00818151
0.00851246
0.00878898
0.00902581
0.00923769
0.00942801
0.00959248
0.00973003
0.00984234
0.00993168
0.0100001
0.0100487
0.0100979
0.0099927
0.0100879
0.00794861
0.0078054
0.00808838
0.00819843
0.0084424
0.00862854
0.00878271
0.00892035
0.00904442
0.00915034
0.00923638
0.00930238
0.00934985
0.00938161
0.00939652
0.00941458
0.00929706
0.00934621
0.00796917
0.00787991
0.0081759
0.00822714
0.00838726
0.00848312
0.00855568
0.00861598
0.00866899
0.00870713
0.00872969
0.00873759
0.00873198
0.00871545
0.00868661
0.00866238
0.00852162
0.00852669
0.00800079
0.00794933
0.00824085
0.00821009
0.00826617
0.00825884
0.00823833
0.00821042
0.00818094
0.00814042
0.00808964
0.00803076
0.00796632
0.00789504
0.00781922
0.00774717
0.00758053
0.00752876
0.00804464
0.00800338
0.00825163
0.0081066
0.00804139
0.0079262
0.00780904
0.00769187
0.00758054
0.00746479
0.00734578
0.00722723
0.0071096
0.00699203
0.00687598
0.00676608
0.00658319
0.00649724
0.0080972
0.00803378
0.00819033
0.00791298
0.00772971
0.00752201
0.00732426
0.00713838
0.00696362
0.00679018
0.0066214
0.00645782
0.00629863
0.00614376
0.0059929
0.00585058
0.00565365
0.00552406
0.008152
0.00803848
0.00806466
0.00767358
0.0074027
0.0071366
0.00688962
0.00666423
0.00644606
0.00623204
0.00602526
0.0058261
0.00563268
0.00544561
0.00526076
0.00508579
0.00487469
0.00469126
0.00821121
0.00801579
0.00791586
0.00745048
0.00712473
0.006825
0.00655112
0.0062934
0.0060443
0.00580297
0.00556251
0.0053347
0.00511411
0.00489462
0.00467892
0.0044788
0.00424458
0.00402755
0.00828195
0.00793203
0.00778761
0.00729033
0.00691656
0.00656942
0.00625426
0.00594037
0.00566168
0.00538837
0.00509771
0.00484677
0.00460239
0.00434049
0.00410416
0.00388582
0.00362849
0.00337104
0.0084103
0.00789817
0.00773195
0.00714377
0.00666877
0.00621985
0.0058186
0.00539869
0.0050724
0.00474884
0.0043729
0.004106
0.00384162
0.00351747
0.00328465
0.00307954
0.00278893
0.00249788
0.00829714
0.00751035
0.00714137
0.00644968
0.00603093
0.00567873
0.00537363
0.0050672
0.00480956
0.0045597
0.00431361
0.00411585
0.00392986
0.00374683
0.00359749
0.00346897
0.00329721
0.00304938
4.59454e-05
-0.000197992
-0.000367427
-0.00063689
-0.000997728
-0.00134193
-0.00166723
-0.00200496
-0.00233301
-0.00265208
-0.00293046
-0.00316785
-0.00338554
-0.00357583
-0.00374944
-0.00389709
-0.00401337
-0.00410791
-0.00418579
-0.00423487
-0.00425669
-0.00425543
-0.00422524
-0.00417928
-0.00410267
-0.00400416
-0.00387923
-0.00372955
-0.00354807
-0.00334733
-0.00312026
-0.00287314
-0.00260091
-0.00231741
-0.00201398
-0.00169662
-0.00136101
-0.00101881
-0.000657601
-0.000286063
9.89654e-05
0.000487841
0.000892043
0.00130004
0.00171731
0.00213596
0.00256766
0.00299906
0.00343709
0.00387717
0.00432766
0.00477543
0.00523221
0.00568947
0.00615336
0.00661196
0.00707667
0.00753988
0.00800388
0.00846392
0.00893035
0.00939132
0.0098523
0.010309
0.0107692
0.0112217
0.0116764
0.0121268
0.0125766
0.0130187
0.0134615
0.0138969
0.0143294
0.0147541
0.0151772
0.015594
0.0160063
0.0164124
0.0168087
0.0171996
0.0175834
0.0179565
0.0183244
0.0186796
0.0190296
0.0193664
0.0196968
0.0200144
0.0203195
0.0206123
0.020891
0.0211646
0.0214282
0.0216832
0.0219261
0.0221555
0.022377
0.0225799
0.0227771
0.0229555
0.023126
0.0232806
0.0234286
0.0235581
0.023682
0.02379
0.0238804
0.0239661
0.0240344
0.024088
0.024134
0.0241629
0.0241823
0.0241904
0.024191
0.0241713
0.0241488
0.0241131
0.024064
0.0240079
0.0239377
0.0238644
0.0237834
0.0236898
0.0235884
0.0234741
0.0233541
0.0232205
0.0230816
0.0229483
0.0227995
0.022648
0.0224754
0.0223178
0.022136
0.021963
0.0217721
0.0215751
0.0213735
0.0211776
0.0209702
0.0207752
0.0205606
0.020355
0.0201325
0.0199163
0.0197079
0.0194899
0.0192647
0.0190384
0.0188257
0.01859
0.0183554
0.0181311
0.0179169
0.0176724
0.017448
0.0172067
0.0169668
0.016757
0.0165064
0.0162779
0.0160265
0.015802
0.0155529
0.0153175
0.0150795
0.0148186
0.0145847
0.0143431
0.0140796
0.0137953
0.0135446
0.0132148
0.0128994
0.0125422
0.0121191
0.0116591
0.011073
0.0100913
-0.000226059
-0.000503854
-0.000812641
-0.00118958
-0.00156742
-0.00191634
-0.00224021
-0.00253137
-0.00278828
-0.00301588
-0.00321561
-0.00338947
-0.00353608
-0.00365618
-0.0037479
-0.00381106
-0.00384765
-0.00385486
-0.00382861
-0.00377505
-0.00369342
-0.00358389
-0.00344644
-0.0032807
-0.00308834
-0.00287067
-0.00263189
-0.00237107
-0.00209329
-0.00179776
-0.00148819
-0.00116467
-0.000829414
-0.000482648
-0.000128944
0.000234754
0.000605292
0.000983206
0.00136797
0.0017577
0.00215626
0.00255837
0.00296659
0.00337878
0.00379728
0.00421635
0.00463959
0.00506713
0.00549485
0.0059272
0.00636176
0.00680047
0.00724095
0.0076832
0.00812553
0.00856794
0.00900994
0.00945398
0.0098972
0.0103362
0.0107806
0.0112198
0.0116589
0.0120908
0.0125241
0.0129535
0.0133801
0.0138046
0.0142227
0.0146399
0.0150537
0.015461
0.0158661
0.016262
0.0166528
0.0170413
0.017424
0.0178019
0.0181696
0.0185368
0.0188882
0.0192351
0.0195778
0.019908
0.0202355
0.0205495
0.0208594
0.0211568
0.0214383
0.0217123
0.0219724
0.0222231
0.0224672
0.022715
0.0229397
0.0231506
0.0233694
0.0235571
0.0237505
0.0239161
0.0240854
0.0242278
0.0243761
0.0244924
0.0246206
0.0247271
0.024807
0.0248915
0.0249637
0.0250007
0.0250541
0.0250852
0.0250938
0.025086
0.0250954
0.0250712
0.025053
0.0250105
0.0249521
0.024918
0.024854
0.0247897
0.0247094
0.0246025
0.0244974
0.0243711
0.0242893
0.0241687
0.0240222
0.0238751
0.0237208
0.0235986
0.0234217
0.0232862
0.0230931
0.0229534
0.02279
0.0226149
0.0224308
0.0222434
0.0220214
0.0218043
0.0215837
0.0214277
0.0212095
0.0209681
0.020804
0.0206087
0.0203861
0.0201266
0.0199702
0.0197728
0.0195274
0.0192721
0.0191055
0.0188488
0.0186836
0.0184386
0.0181728
0.0180092
0.0177547
0.0175714
0.0173228
0.0171309
0.0168721
0.0166883
0.0164857
0.0162105
0.0159979
0.0158008
0.0155335
0.0152439
0.0150799
0.0147705
0.0145921
0.0143455
0.0139604
0.0137571
0.013414
0.0129513
-0.000337932
-0.000662451
-0.0010484
-0.00142028
-0.00174411
-0.00202433
-0.00226913
-0.00248018
-0.00265887
-0.00280491
-0.00292123
-0.00301197
-0.00307595
-0.00311121
-0.00311788
-0.00309741
-0.00304854
-0.00297283
-0.00287404
-0.00275535
-0.00261163
-0.00244399
-0.0022582
-0.00205052
-0.0018229
-0.00157856
-0.00132134
-0.00104889
-0.000767127
-0.000473302
-0.000169242
0.000143564
0.000461121
0.000790534
0.00112475
0.00146869
0.0018176
0.00217369
0.00253814
0.0029095
0.00328914
0.0036684
0.00405501
0.00444797
0.00484757
0.00524626
0.00565008
0.00606214
0.00647249
0.00688944
0.00730879
0.00772816
0.00814809
0.00856971
0.00898709
0.00940826
0.00983168
0.0102585
0.0106849
0.0111049
0.0115292
0.0119484
0.01237
0.0127847
0.0132023
0.0136172
0.0140228
0.0144306
0.0148309
0.015232
0.0156238
0.0160121
0.0163992
0.0167853
0.0171653
0.0175349
0.0179035
0.0182619
0.0186181
0.0189708
0.0193069
0.0196424
0.0199659
0.0202815
0.0205932
0.0209005
0.0211918
0.0214759
0.0217549
0.0220159
0.0222721
0.0225124
0.022747
0.0229828
0.0231971
0.0234008
0.0236085
0.0237866
0.0239639
0.0241249
0.0242894
0.0244322
0.0245707
0.0246808
0.0247949
0.0248944
0.0249814
0.025049
0.0251171
0.0251534
0.0251956
0.0252231
0.025239
0.0252301
0.0252266
0.0252091
0.0251808
0.0251453
0.0250989
0.0250535
0.0249706
0.0248976
0.0248135
0.0247243
0.0246412
0.0245148
0.0244198
0.0242908
0.0241615
0.0240193
0.0238711
0.0237386
0.023578
0.0234354
0.0232523
0.0230965
0.0229229
0.0227452
0.0225677
0.0223838
0.0221928
0.0219825
0.0217798
0.0216141
0.0214139
0.0211768
0.0209923
0.0207903
0.0206
0.0203521
0.020165
0.0199761
0.0197646
0.0195196
0.0193353
0.0190923
0.0189171
0.0186963
0.0184597
0.0182642
0.0180288
0.0178283
0.0176178
0.0174038
0.0171645
0.0169624
0.0167504
0.0165252
0.0162734
0.0160779
0.0158426
0.0155997
0.0153989
0.0151245
0.014947
0.0147038
0.0143294
0.0141282
0.0137774
0.0134262
-0.000377669
-0.000684429
-0.00105821
-0.0013944
-0.00167418
-0.00190509
-0.00209694
-0.00225262
-0.00237415
-0.00246316
-0.00252244
-0.00255409
-0.00255764
-0.00253416
-0.00248657
-0.00241501
-0.00231905
-0.00220224
-0.00206646
-0.00191211
-0.00173992
-0.00155221
-0.00135216
-0.00113821
-0.00091115
-0.0006718
-0.00042133
-0.000160768
0.000106961
0.000385281
0.00067243
0.000966513
0.0012677
0.00157874
0.00189785
0.00222724
0.00256384
0.00290604
0.00325412
0.00360906
0.00397206
0.00433861
0.00471297
0.00509041
0.00547216
0.00585842
0.00624762
0.00664138
0.00703598
0.00743466
0.00783597
0.00823915
0.00864327
0.00904996
0.00945687
0.0098654
0.010274
0.0106816
0.0110899
0.0114967
0.0119041
0.0123087
0.0127132
0.0131146
0.0135145
0.0139127
0.0143057
0.0146986
0.0150866
0.0154729
0.0158524
0.0162294
0.0166005
0.0169688
0.017332
0.0176899
0.0180449
0.0183905
0.0187324
0.0190678
0.0193952
0.0197177
0.0200314
0.020339
0.0206367
0.0209295
0.0212101
0.0214835
0.0217498
0.0219997
0.0222459
0.0224802
0.0227084
0.0229285
0.0231362
0.0233323
0.0235229
0.0236993
0.023865
0.0240202
0.0241667
0.0243008
0.0244267
0.0245386
0.0246415
0.0247298
0.024811
0.024874
0.0249334
0.0249735
0.0250071
0.0250281
0.0250409
0.0250377
0.0250283
0.0250097
0.0249759
0.0249383
0.0248878
0.0248317
0.0247582
0.0246831
0.0245979
0.0245085
0.0244185
0.0243075
0.0241981
0.0240727
0.0239495
0.0238126
0.0236728
0.0235269
0.0233734
0.0232197
0.0230532
0.0228885
0.0227144
0.0225343
0.0223556
0.0221734
0.0219943
0.0218013
0.0216117
0.0214216
0.021228
0.021022
0.0208225
0.0206162
0.0204247
0.0202113
0.0200038
0.0198012
0.0196021
0.0193835
0.0191819
0.0189644
0.018762
0.0185528
0.0183425
0.0181377
0.0179192
0.0177013
0.0175011
0.0172837
0.0170673
0.0168547
0.016631
0.0164344
0.0161854
0.0159746
0.015763
0.0155535
0.0153294
0.0150887
0.014887
0.0146433
0.0143477
0.0141156
0.0138207
0.0135357
-0.000362147
-0.000623399
-0.000955787
-0.00124822
-0.00148807
-0.00168063
-0.00183333
-0.0019493
-0.00203037
-0.0020797
-0.00210003
-0.00209328
-0.00206063
-0.00200447
-0.0019262
-0.00182696
-0.00170964
-0.00157554
-0.00142603
-0.00126298
-0.00108672
-0.000898545
-0.000699454
-0.000489266
-0.000269465
-3.98744e-05
0.000198811
0.0004457
0.000701546
0.000966092
0.00123971
0.00152098
0.00181294
0.00211374
0.00242204
0.00273883
0.00306373
0.00339552
0.00373409
0.00407931
0.00443062
0.00478697
0.00514903
0.00551505
0.00588562
0.00625914
0.00663596
0.00701642
0.00739891
0.00778376
0.00817062
0.00855959
0.0089502
0.00934233
0.00973607
0.01013
0.0105241
0.0109174
0.0113106
0.0117032
0.0120946
0.0124854
0.0128747
0.0132623
0.0136475
0.0140304
0.0144111
0.0147887
0.0151633
0.0155342
0.0159004
0.0162642
0.0166224
0.0169759
0.0173247
0.0176704
0.0180096
0.0183432
0.0186715
0.0189932
0.0193101
0.0196185
0.0199206
0.020215
0.0205028
0.0207819
0.0210525
0.0213146
0.0215669
0.0218086
0.0220434
0.0222683
0.0224872
0.0226943
0.0228919
0.0230803
0.0232586
0.0234277
0.023584
0.023733
0.0238692
0.0239949
0.0241101
0.0242161
0.0243102
0.0243934
0.0244647
0.0245245
0.0245748
0.0246143
0.0246411
0.0246581
0.0246645
0.0246618
0.0246507
0.0246259
0.0245914
0.0245505
0.0244972
0.0244366
0.0243676
0.0242913
0.0242079
0.0241173
0.0240181
0.023915
0.0237994
0.0236808
0.0235536
0.023422
0.0232835
0.0231383
0.0229862
0.0228325
0.0226697
0.0225049
0.0223348
0.0221601
0.0219814
0.0218025
0.0216233
0.0214412
0.021256
0.0210631
0.02087
0.0206787
0.0204807
0.0202803
0.0200825
0.0198828
0.0196786
0.0194713
0.0192724
0.0190698
0.0188676
0.0186614
0.0184536
0.0182477
0.0180436
0.0178415
0.0176322
0.0174224
0.017216
0.017009
0.0168008
0.0165936
0.0163782
0.0161779
0.0159613
0.0157479
0.0155401
0.0153312
0.0151145
0.0148865
0.0146626
0.014429
0.014189
0.0139502
0.0137037
0.0134722
-0.000319896
-0.000534557
-0.000820399
-0.00106824
-0.00126757
-0.00142298
-0.00153935
-0.00162016
-0.00166853
-0.00168783
-0.00168065
-0.00164898
-0.00159487
-0.00152092
-0.00142836
-0.00131919
-0.00119598
-0.00105957
-0.000910432
-0.00074973
-0.000578144
-0.000396583
-0.000205272
-4.50022e-06
0.00020557
0.000425952
0.000654053
0.000891154
0.00113791
0.00139361
0.00165895
0.00193272
0.00221698
0.00250978
0.00280941
0.0031179
0.0034349
0.00375849
0.00408913
0.0044255
0.00476721
0.00511451
0.00546664
0.00582192
0.00618213
0.00654501
0.00691095
0.00727944
0.00764984
0.00802254
0.00839669
0.00877251
0.00914991
0.00952817
0.00990743
0.010287
0.0106664
0.0110453
0.0114243
0.0118026
0.0121797
0.0125558
0.0129305
0.0133031
0.0136738
0.014042
0.0144088
0.0147714
0.015131
0.015487
0.0158393
0.0161877
0.0165328
0.0168721
0.0172066
0.0175371
0.0178612
0.0181812
0.0184963
0.0188044
0.019107
0.0194029
0.0196926
0.0199726
0.0202474
0.0205138
0.0207726
0.0210214
0.0212613
0.0214929
0.0217167
0.0219302
0.0221368
0.022332
0.0225207
0.0227003
0.0228672
0.0230269
0.0231748
0.0233138
0.0234419
0.0235598
0.0236686
0.023766
0.02385
0.0239277
0.0239904
0.0240432
0.0240869
0.0241209
0.0241423
0.0241573
0.0241598
0.0241542
0.0241392
0.0241118
0.0240727
0.0240281
0.0239746
0.0239143
0.0238436
0.0237675
0.0236825
0.0235927
0.023492
0.0233912
0.0232748
0.0231581
0.0230307
0.0229038
0.022766
0.0226247
0.0224713
0.0223201
0.0221601
0.0219975
0.0218316
0.0216616
0.0214855
0.0213127
0.021136
0.020958
0.0207764
0.0205896
0.0204007
0.0202115
0.0200197
0.0198254
0.0196318
0.0194341
0.0192365
0.0190354
0.0188431
0.0186433
0.0184472
0.0182463
0.0180429
0.0178409
0.0176414
0.0174418
0.017242
0.0170393
0.0168372
0.0166351
0.0164336
0.0162316
0.0160266
0.0158254
0.0156281
0.0154237
0.015218
0.0150101
0.0148006
0.0145839
0.0143578
0.0141391
0.0139185
0.0136947
0.0134732
0.0132847
-0.000266504
-0.000450959
-0.000687326
-0.000888314
-0.0010465
-0.00116391
-0.00124542
-0.00129484
-0.00131575
-0.00131186
-0.0012856
-0.00123913
-0.00117416
-0.00109268
-0.00099636
-0.000887249
-0.000766319
-0.000633246
-0.000489543
-0.000336341
-0.000173176
5.74295e-08
0.00018331
0.000375658
0.00057743
0.000790677
0.0010115
0.00124245
0.00148315
0.00173482
0.00199555
0.00226531
0.00254433
0.00283238
0.003128
0.00343152
0.00374193
0.00405872
0.0043827
0.00471095
0.00504419
0.00538232
0.00572472
0.00606966
0.0064191
0.00677117
0.00712541
0.00748239
0.00784095
0.00820128
0.00856272
0.00892535
0.00928881
0.00965293
0.0100174
0.0103821
0.0107463
0.0111103
0.011474
0.0118374
0.0121985
0.012559
0.0129183
0.0132752
0.0136304
0.0139829
0.0143331
0.0146796
0.015024
0.0153638
0.0157013
0.0160343
0.016364
0.0166878
0.0170068
0.017322
0.0176314
0.0179364
0.0182359
0.0185275
0.0188159
0.0190978
0.0193735
0.0196409
0.0199006
0.0201525
0.0203976
0.020632
0.0208601
0.0210782
0.021288
0.0214892
0.0216841
0.0218681
0.0220465
0.022215
0.0223704
0.02252
0.0226575
0.0227857
0.0229043
0.0230128
0.0231124
0.0232023
0.0232778
0.0233473
0.0234037
0.0234512
0.0234876
0.0235158
0.023532
0.0235418
0.0235387
0.0235288
0.0235091
0.0234815
0.0234404
0.0233931
0.0233385
0.0232753
0.0232057
0.0231306
0.0230449
0.0229548
0.0228543
0.022755
0.0226414
0.0225254
0.0224023
0.0222773
0.0221407
0.0220037
0.021853
0.0217044
0.0215501
0.0213878
0.021226
0.0210619
0.0208922
0.0207259
0.0205524
0.0203779
0.0202008
0.0200194
0.0198369
0.0196521
0.0194674
0.0192786
0.0190893
0.0188993
0.0187092
0.0185161
0.0183294
0.0181301
0.0179432
0.0177489
0.0175508
0.0173555
0.0171625
0.0169687
0.0167772
0.0165806
0.0163848
0.0161891
0.0159936
0.0157986
0.0155999
0.015404
0.015217
0.0150231
0.0148225
0.0146236
0.0144197
0.0142132
0.0140005
0.0137939
0.0135858
0.0133759
0.0131725
0.0130116
-0.000212292
-0.000376377
-0.000564925
-0.000720681
-0.000838031
-0.000919181
-0.00096921
-0.000992207
-0.000991622
-0.000970332
-0.000931375
-0.000876592
-0.000806185
-0.000722883
-0.00062813
-0.000522881
-0.000407306
-0.00028031
-0.00014325
3.4374e-06
0.000160044
0.000326393
0.000503021
0.000691515
0.000890205
0.00110036
0.00131943
0.00154935
0.00178986
0.00204131
0.00230039
0.00256846
0.00284521
0.00313017
0.00342145
0.00372031
0.0040253
0.00433648
0.00465382
0.00497465
0.00529976
0.00562843
0.00596083
0.00629604
0.00663505
0.00697569
0.00731799
0.00766273
0.00800839
0.00835513
0.00870242
0.00905037
0.00939909
0.00974788
0.0100966
0.0104451
0.0107928
0.011141
0.0114878
0.0118339
0.0121776
0.0125218
0.0128636
0.0132029
0.0135413
0.0138772
0.0142099
0.0145392
0.0148662
0.0151891
0.0155089
0.0158244
0.0161353
0.0164418
0.0167438
0.0170426
0.0173347
0.0176223
0.0179046
0.0181793
0.01845
0.0187137
0.0189723
0.0192244
0.0194685
0.0197063
0.0199375
0.020158
0.020371
0.0205739
0.0207697
0.0209572
0.0211403
0.0213125
0.0214769
0.0216302
0.0217727
0.0219103
0.0220375
0.0221562
0.0222635
0.0223628
0.0224512
0.0225315
0.0225996
0.0226602
0.0227086
0.0227494
0.0227783
0.0228021
0.0228134
0.0228182
0.0228095
0.0227965
0.0227727
0.022741
0.0226993
0.0226508
0.022595
0.0225294
0.0224619
0.0223856
0.0223033
0.022212
0.0221112
0.0220127
0.021903
0.0217888
0.021667
0.0215442
0.0214106
0.0212782
0.0211365
0.0209918
0.020843
0.0206844
0.0205265
0.0203688
0.0202054
0.0200426
0.0198764
0.0197081
0.0195375
0.019362
0.0191863
0.0190094
0.0188333
0.0186535
0.0184706
0.0182896
0.0181054
0.0179212
0.0177373
0.0175445
0.0173638
0.0171769
0.0169885
0.0167992
0.0166146
0.0164272
0.0162427
0.0160554
0.0158668
0.0156807
0.0154927
0.0153063
0.0151179
0.0149285
0.014747
0.0145594
0.0143682
0.0141819
0.0139866
0.0137897
0.0135918
0.0133932
0.0132014
0.013005
0.0128214
0.0126785
-0.000165301
-0.000303415
-0.000451644
-0.000568173
-0.00065065
-0.000700738
-0.000722504
-0.000722214
-0.000703964
-0.000669934
-0.000622495
-0.00056136
-0.000487905
-0.000405802
-0.000313585
-0.000210587
-9.80584e-05
2.51643e-05
0.000157962
0.000300847
0.000454528
0.000620028
0.000798362
0.000989058
0.00118996
0.00140205
0.00162439
0.00185708
0.00209886
0.00235061
0.00261061
0.00287808
0.00315373
0.00343674
0.00372516
0.0040196
0.00431896
0.004625
0.00493504
0.00524696
0.00556416
0.00588409
0.00620676
0.00653129
0.00685864
0.00718648
0.00751529
0.00784583
0.00817647
0.00850786
0.00883945
0.00917099
0.00950288
0.00983438
0.0101653
0.0104961
0.0108258
0.0111556
0.0114833
0.011811
0.0121362
0.0124611
0.012783
0.0131035
0.0134219
0.0137377
0.0140513
0.0143615
0.0146682
0.0149713
0.0152709
0.0155661
0.0158575
0.0161448
0.0164272
0.0167068
0.0169799
0.0172479
0.0175111
0.0177683
0.0180194
0.0182645
0.0185046
0.0187383
0.0189635
0.0191849
0.0193985
0.0196041
0.0197989
0.019987
0.0201675
0.0203394
0.0205057
0.0206609
0.0208108
0.0209526
0.0210821
0.0212068
0.0213217
0.0214268
0.021521
0.0216106
0.0216887
0.0217581
0.0218166
0.0218688
0.0219105
0.0219439
0.0219663
0.0219823
0.0219859
0.0219853
0.0219738
0.0219572
0.0219311
0.021896
0.0218512
0.021802
0.0217453
0.021681
0.0216129
0.0215359
0.0214572
0.0213668
0.0212696
0.0211726
0.0210649
0.0209533
0.0208339
0.0207169
0.0205881
0.0204586
0.020323
0.0201843
0.020041
0.019891
0.0197409
0.0195883
0.0194294
0.0192713
0.0191133
0.0189541
0.0187911
0.0186249
0.0184554
0.0182864
0.018117
0.0179481
0.0177716
0.0176013
0.017425
0.0172496
0.0170724
0.016893
0.0167178
0.0165361
0.0163579
0.0161798
0.0160045
0.0158243
0.0156459
0.0154702
0.0152894
0.0151141
0.0149369
0.0147588
0.0145813
0.0144004
0.0142275
0.0140456
0.013864
0.0136882
0.0135042
0.0133218
0.013134
0.012946
0.0127724
0.0125945
0.0124286
0.0123012
-0.000117797
-0.00024016
-0.000351202
-0.000432242
-0.000482819
-0.000504384
-0.000502539
-0.000484114
-0.000452322
-0.000408644
-0.000353951
-0.000288716
-0.000214909
-0.00013296
-4.02173e-05
6.35789e-05
0.000176951
0.000302328
0.000439395
0.000587659
0.000748495
0.000922155
0.00110777
0.00130471
0.00151117
0.00172871
0.00195774
0.00219593
0.00244193
0.00269677
0.00295891
0.00322578
0.00350084
0.00378218
0.00406736
0.00435826
0.00465226
0.00495065
0.00525268
0.00555585
0.00586316
0.00617216
0.00648297
0.00679444
0.00710774
0.00742083
0.00773413
0.00804828
0.00836193
0.00867568
0.00898918
0.00930191
0.00961435
0.00992625
0.0102371
0.0105477
0.0108569
0.0111653
0.0114719
0.0117786
0.0120824
0.0123849
0.0126854
0.0129837
0.01328
0.0135736
0.0138636
0.014152
0.0144363
0.014716
0.0149937
0.0152671
0.0155371
0.0158018
0.016061
0.0163191
0.0165713
0.0168178
0.0170582
0.0172957
0.017527
0.0177519
0.0179707
0.0181842
0.018389
0.0185891
0.0187827
0.0189691
0.0191453
0.0193151
0.0194771
0.0196328
0.0197814
0.0199208
0.0200535
0.0201793
0.0202942
0.0204034
0.0205042
0.0205972
0.02068
0.0207573
0.020824
0.0208838
0.0209328
0.0209753
0.0210083
0.0210331
0.0210487
0.0210574
0.0210552
0.0210489
0.0210339
0.0210135
0.0209831
0.0209444
0.0209
0.0208509
0.0207914
0.0207275
0.0206591
0.0205828
0.0205057
0.020417
0.0203266
0.0202303
0.0201241
0.0200182
0.0199068
0.0197934
0.0196685
0.0195441
0.019415
0.0192851
0.0191479
0.0190074
0.0188643
0.0187191
0.0185697
0.018419
0.018268
0.0181181
0.0179625
0.0178059
0.0176459
0.017487
0.0173247
0.0171637
0.0169966
0.0168362
0.0166704
0.0165065
0.0163394
0.0161703
0.0160048
0.015832
0.0156665
0.0155012
0.0153341
0.0151642
0.0149927
0.0148283
0.0146579
0.0144928
0.0143273
0.0141581
0.0139908
0.01382
0.0136559
0.0134825
0.0133117
0.0131486
0.0129773
0.0128099
0.0126322
0.0124608
0.0123006
0.0121406
0.0119886
0.0118753
-8.22787e-05
-0.000184896
-0.000263277
-0.000303943
-0.000320625
-0.000318442
-0.000299978
-0.000268577
-0.000226051
-0.000172454
-0.000110612
-4.04254e-05
3.87745e-05
0.00012779
0.000227692
0.000339284
0.000462814
0.000599199
0.000747047
0.000906574
0.00107974
0.00126636
0.00146324
0.00167121
0.00188946
0.00211765
0.00235407
0.00259611
0.00284654
0.00310464
0.00336853
0.00363661
0.00391074
0.00418915
0.00447001
0.00475464
0.00504247
0.00533245
0.00562397
0.00591657
0.0062115
0.00650653
0.00680269
0.00709826
0.00739488
0.00769062
0.00798563
0.00828016
0.00857406
0.00886723
0.00915957
0.00945082
0.00974116
0.0100304
0.0103186
0.0106059
0.0108911
0.0111753
0.0114582
0.0117399
0.0120186
0.0122961
0.012572
0.0128453
0.0131163
0.0133848
0.0136498
0.0139126
0.0141712
0.0144267
0.0146791
0.0149273
0.0151711
0.0154116
0.0156473
0.0158799
0.0161059
0.0163285
0.0165461
0.0167603
0.0169673
0.0171697
0.0173648
0.0175552
0.0177402
0.0179188
0.0180908
0.018254
0.0184099
0.0185574
0.0186989
0.0188345
0.0189656
0.0190872
0.0192019
0.0193104
0.0194096
0.0195025
0.0195894
0.019668
0.0197371
0.019802
0.0198567
0.0199055
0.0199431
0.0199754
0.0199992
0.0200155
0.0200237
0.0200274
0.0200194
0.0200079
0.0199865
0.0199604
0.0199263
0.0198843
0.0198389
0.0197891
0.0197316
0.0196692
0.019601
0.0195251
0.0194499
0.0193642
0.0192781
0.0191852
0.0190837
0.0189849
0.0188783
0.018768
0.0186518
0.0185357
0.0184121
0.0182891
0.0181598
0.0180291
0.0178943
0.0177606
0.0176211
0.0174767
0.017335
0.0171935
0.0170469
0.0169016
0.0167539
0.0166061
0.0164548
0.0163025
0.0161467
0.0159971
0.0158413
0.0156884
0.015534
0.0153754
0.015223
0.0150627
0.0149097
0.0147524
0.014596
0.0144424
0.0142831
0.0141289
0.0139684
0.0138141
0.0136603
0.0135023
0.0133483
0.0131889
0.0130368
0.0128766
0.0127183
0.0125632
0.012405
0.0122491
0.0120899
0.0119341
0.0117902
0.0116439
0.0115072
0.0114076
-4.82667e-05
-0.000130314
-0.000164445
-0.000162569
-0.000151753
-0.000134179
-0.00010395
-6.14556e-05
-7.21663e-06
5.84797e-05
0.000132578
0.000216393
0.000309171
0.000411663
0.000525866
0.00065172
0.000791697
0.000945745
0.00111132
0.00129035
0.00148214
0.00168526
0.00189732
0.00211949
0.00234977
0.00258837
0.00283409
0.00308453
0.00334054
0.00360182
0.00386636
0.00413258
0.00440349
0.00467681
0.0049513
0.00522762
0.00550494
0.00578246
0.00606158
0.00633999
0.00661893
0.00689679
0.00717483
0.0074509
0.00772688
0.00800106
0.00827386
0.00854548
0.00881629
0.00908559
0.00935323
0.00961943
0.00988423
0.0101475
0.0104091
0.0106693
0.0109277
0.0111844
0.0114391
0.0116926
0.0119436
0.0121935
0.0124414
0.0126865
0.0129295
0.0131699
0.0134062
0.0136406
0.0138714
0.0140987
0.0143222
0.0145426
0.0147571
0.0149705
0.0151781
0.0153826
0.0155818
0.0157755
0.0159662
0.0161524
0.016333
0.0165097
0.0166796
0.0168463
0.0170051
0.0171582
0.0173052
0.0174453
0.0175798
0.017707
0.0178283
0.0179422
0.018053
0.0181539
0.0182494
0.0183398
0.0184214
0.0184979
0.0185696
0.0186311
0.0186877
0.0187389
0.01878
0.0188157
0.0188426
0.0188651
0.0188794
0.018887
0.0188879
0.0188846
0.0188703
0.0188544
0.0188276
0.0187969
0.01876
0.0187186
0.0186698
0.0186188
0.0185633
0.0185026
0.0184356
0.0183629
0.0182916
0.0182088
0.0181258
0.0180381
0.0179423
0.0178481
0.0177478
0.0176444
0.0175376
0.0174302
0.0173122
0.0171973
0.0170776
0.0169558
0.0168305
0.0167075
0.0165793
0.016444
0.016315
0.0161827
0.016046
0.0159132
0.0157794
0.0156391
0.0155017
0.0153634
0.0152213
0.015082
0.0149373
0.0147982
0.0146576
0.0145141
0.0143756
0.0142294
0.0140862
0.0139405
0.0137948
0.013659
0.013511
0.0133692
0.0132225
0.0130795
0.0129408
0.0127935
0.0126553
0.0125071
0.0123674
0.0122204
0.012077
0.0119317
0.0117884
0.0116442
0.0115039
0.0113629
0.011234
0.0111054
0.0109816
0.0108972
-8.73885e-06
-5.20501e-05
-5.11565e-05
-2.44106e-05
4.95509e-06
4.17663e-05
9.23053e-05
0.000156022
0.000233605
0.000321617
0.000415703
0.000519897
0.000633089
0.00075729
0.000897861
0.00104982
0.00121616
0.00139513
0.0015833
0.00178506
0.00199813
0.00222062
0.00245104
0.0026889
0.00293055
0.00317846
0.00343174
0.00368879
0.00394652
0.00420824
0.00447087
0.0047342
0.00499896
0.00526287
0.00552622
0.00579025
0.00605411
0.00631588
0.00657793
0.0068368
0.00709436
0.00734986
0.00760405
0.00785603
0.00810643
0.00835472
0.00860155
0.00884631
0.00908908
0.0093298
0.00956842
0.00980511
0.0100401
0.0102732
0.0105039
0.010733
0.0109605
0.0111858
0.0114093
0.0116315
0.0118509
0.0120693
0.0122851
0.0124982
0.0127094
0.0129185
0.013124
0.0133258
0.0135244
0.0137197
0.013911
0.0141006
0.0142846
0.0144668
0.0146424
0.0148161
0.014985
0.0151488
0.0153107
0.0154656
0.0156167
0.0157653
0.0159066
0.016045
0.0161747
0.0163013
0.0164215
0.0165379
0.0166489
0.0167519
0.0168486
0.0169406