/*--------------------------------*- C++ -*----------------------------------*\
  =========                 |
  \\      /  F ield         | OpenFOAM: The Open Source CFD Toolbox
   \\    /   O peration     | Website:  https://openfoam.org
    \\  /    A nd           | Version:  8
     \\/     M anipulation  |
\*---------------------------------------------------------------------------*/
FoamFile
{
    version     2.0;
    format      ascii;
    class       volScalarField;
    location    "200";
    object      upod_4;
}
// * * * * * * * * * * * * * * * * * * * * * * * * * * * * * * * * * * * * * //

dimensions      [0 1 -1 0 0 0 0];

internalField   nonuniform List<scalar> 
12225
(
0.00434821
0.000190481
-0.000176159
-0.00249368
-0.00322509
-0.0035894
-0.00394299
-0.00440912
-0.00502004
-0.0056186
-0.00617374
-0.0065375
-0.00672916
-0.00646122
-0.00602319
-0.00221684
-2.12129e-05
0.00782645
0.00439202
0.00116918
0.000285168
-0.00259301
-0.00449632
-0.00601624
-0.00721335
-0.00823305
-0.00893466
-0.00949656
-0.0101081
-0.010098
-0.00995355
-0.00943136
-0.00831979
-0.0072503
-0.0028728
0.000248699
0.00403977
0.00187784
0.000583539
-0.00211878
-0.0039368
-0.00543606
-0.00663234
-0.00763151
-0.00834525
-0.00894324
-0.00948527
-0.00954002
-0.00939606
-0.00892896
-0.00802478
-0.00705071
-0.00433714
-0.000762022
0.00375196
0.0023451
0.000884735
-0.00174118
-0.00349882
-0.00496391
-0.00613806
-0.00710489
-0.00781866
-0.00842526
-0.00889744
-0.00904665
-0.00897026
-0.00862553
-0.00791738
-0.00711426
-0.00555411
-0.00324018
0.00354347
0.00258074
0.00124407
-0.0013166
-0.00304073
-0.00449189
-0.00565488
-0.00660085
-0.00731262
-0.00790424
-0.00833611
-0.00853097
-0.00850955
-0.00826016
-0.00772144
-0.00709647
-0.00615599
-0.00525532
0.00339593
0.00269309
0.00167105
-0.000782238
-0.00245849
-0.00389947
-0.00506167
-0.00600678
-0.00671536
-0.00729556
-0.00770967
-0.00792858
-0.00794084
-0.00775478
-0.00735326
-0.00689683
-0.00636872
-0.00619432
0.0033145
0.00273466
0.00213003
-0.000142086
-0.0017296
-0.00314108
-0.00429636
-0.00524219
-0.00594467
-0.00652171
-0.00692868
-0.00716128
-0.00719219
-0.00705326
-0.00676917
-0.00646132
-0.0062448
-0.00641587
0.00323864
0.00279762
0.00259006
0.000564586
-0.00088727
-0.00223375
-0.00335769
-0.00428959
-0.00498189
-0.00555683
-0.00595598
-0.00618687
-0.00623835
-0.00615476
-0.00598105
-0.00579942
-0.00584417
-0.00616417
0.00315089
0.00289476
0.00300964
0.00126721
5.3712e-07
-0.00124056
-0.00230445
-0.00320684
-0.00387893
-0.00443229
-0.00481996
-0.00504737
-0.00512658
-0.00510463
-0.00502586
-0.00496005
-0.00519642
-0.00559365
0.00307837
0.00301369
0.00337349
0.00191245
0.000854801
-0.000259664
-0.00125284
-0.00211557
-0.00275289
-0.00327153
-0.00364561
-0.00387564
-0.0039837
-0.00401651
-0.00400664
-0.00404337
-0.00440778
-0.00484051
0.00304217
0.00319815
0.00360201
0.0023444
0.00147781
0.000492099
-0.000420134
-0.00122585
-0.00184511
-0.00234777
-0.00271427
-0.00294876
-0.0030812
-0.00314886
-0.0031887
-0.00329101
-0.00371587
-0.0041916
0.0031045
0.00283483
0.00291433
0.00191083
0.00133349
0.000609146
-5.20536e-05
-0.000608895
-0.00103136
-0.00136041
-0.00157578
-0.0016884
-0.00172477
-0.00171035
-0.00170141
-0.00173758
-0.00209074
-0.00235998
0.00299027
0.00262142
0.00252483
0.00158633
0.00136379
0.00102204
0.000745436
0.000557778
0.000466317
0.000431071
0.000459103
0.000547814
0.000678787
0.000821182
0.0009179
0.000993613
0.000667694
0.000784001
0.00269938
0.00298809
0.00332651
0.0025502
0.00255417
0.00245714
0.0024327
0.00248455
0.00263288
0.00281814
0.00303263
0.00327417
0.00350896
0.00371255
0.00385062
0.00395254
0.0035333
0.00370117
0.00236747
0.00295632
0.00410496
0.0039508
0.00432794
0.00451517
0.00472451
0.00497675
0.00528647
0.00560638
0.00592934
0.00624343
0.00651131
0.0067142
0.00682383
0.00687727
0.0063312
0.00647153
0.00212203
0.00252818
0.00420026
0.00479437
0.00573961
0.00637676
0.00691522
0.00741267
0.00788787
0.00832118
0.00871012
0.00904396
0.00929435
0.00944802
0.00948909
0.00946887
0.00880154
0.00882586
0.00202997
0.00195779
0.00370056
0.00479258
0.00622519
0.0073033
0.00819498
0.00897318
0.00965285
0.0102323
0.01071
0.0110723
0.0113126
0.0114338
0.0114297
0.0113832
0.010635
0.010678
0.00207364
0.0013976
0.00298856
0.00429297
0.00601307
0.00739271
0.00855242
0.00956744
0.0104291
0.0111315
0.0116838
0.0120897
0.0123488
0.0124688
0.0124565
0.0124052
0.0116038
0.011702
0.00209718
0.00112621
0.00251807
0.00378893
0.00556019
0.00703044
0.00828031
0.00934355
0.0102118
0.0108942
0.0114067
0.0117653
0.011978
0.0120601
0.0120243
0.0119608
0.0111613
0.0113298
0.00221898
0.00149489
0.00263356
0.0033615
0.00466322
0.00572067
0.0066247
0.00738888
0.00801206
0.00849913
0.00886029
0.00910695
0.00925039
0.00930287
0.00927291
0.0092416
0.00856642
0.00873031
0.00226867
0.00187428
0.00299123
0.00339407
0.00434374
0.00504429
0.005627
0.00610959
0.00649849
0.00679681
0.00700855
0.00713856
0.00719434
0.00718769
0.00711995
0.00706559
0.00645147
0.00653854
0.00233668
0.00221226
0.0033433
0.00347705
0.00409105
0.00443943
0.00469876
0.00488821
0.00502907
0.00511163
0.00514039
0.00512158
0.00505943
0.0049646
0.0048366
0.00473519
0.0041572
0.00420147
0.0024489
0.00252411
0.00357788
0.00334502
0.00355408
0.00350939
0.00341636
0.003289
0.00315736
0.00300192
0.00282777
0.00264569
0.00245954
0.00227051
0.00208579
0.00193008
0.00139733
0.00135629
0.00261305
0.00277313
0.00358122
0.00285997
0.00260914
0.0021615
0.00171381
0.00127893
0.000887509
0.000512015
0.0001577
-0.000165606
-0.000458649
-0.000722643
-0.000953036
-0.00113452
-0.00159858
-0.00165442
0.00281723
0.002915
0.00327855
0.00201325
0.00132144
0.000535077
-0.000197329
-0.000861789
-0.00144874
-0.00198706
-0.00246809
-0.00289335
-0.00326765
-0.00358971
-0.00386193
-0.00407075
-0.00447103
-0.00459002
0.00303018
0.00291537
0.00269971
0.000991513
-2.24822e-05
-0.00102483
-0.00193128
-0.00272102
-0.00343367
-0.00407774
-0.00464627
-0.00514624
-0.00558297
-0.00595501
-0.00627543
-0.00652449
-0.00688264
-0.00712011
0.00325481
0.0027614
0.00200684
3.28616e-05
-0.00116477
-0.00228749
-0.00328738
-0.00417597
-0.00496579
-0.0056649
-0.00630158
-0.00684648
-0.00731826
-0.00773842
-0.00809416
-0.00835368
-0.008698
-0.00897533
0.00354965
0.00238924
0.001392
-0.000741232
-0.00209112
-0.00334247
-0.00444802
-0.00548946
-0.0063244
-0.00706578
-0.00781163
-0.00836338
-0.00884139
-0.00934339
-0.00969511
-0.00994388
-0.0102949
-0.010669
0.00402679
0.00211862
0.00106041
-0.00144082
-0.00309623
-0.00461535
-0.005929
-0.00725482
-0.00814252
-0.0089526
-0.00992971
-0.0104611
-0.0109559
-0.0116721
-0.0119937
-0.0122084
-0.0127342
-0.0132852
0.0036527
0.00146751
2.26638e-05
-0.00241776
-0.00358653
-0.00463473
-0.00559213
-0.00658738
-0.007425
-0.00824078
-0.00906298
-0.00971059
-0.0103208
-0.0109371
-0.0114101
-0.0118085
-0.01237
-0.0132314
0.000443155
0.000295388
0.000875902
0.00192982
0.003194
0.00466174
0.00615289
0.00761698
0.00901905
0.0103123
0.0115521
0.012758
0.0138661
0.0148901
0.0157823
0.0165938
0.0172886
0.0178495
0.0182306
0.0184774
0.0185635
0.0185282
0.0183909
0.0180022
0.017557
0.0170163
0.0164193
0.0157671
0.0150757
0.0143633
0.0136311
0.0128884
0.0121315
0.0113887
0.0106409
0.00990587
0.00916938
0.00845262
0.00772572
0.00699996
0.00626842
0.00555177
0.00481972
0.00409867
0.00337768
0.00267437
0.0019592
0.00126826
0.000580634
-8.69703e-05
-0.000763752
-0.00140023
-0.00203466
-0.00263817
-0.00322806
-0.00377127
-0.00431053
-0.00481676
-0.00529253
-0.00572521
-0.0061374
-0.00650126
-0.00682683
-0.00710804
-0.00736077
-0.00755278
-0.00771089
-0.00782201
-0.00789447
-0.00790941
-0.00788797
-0.00781196
-0.007688
-0.00751603
-0.00730751
-0.00702526
-0.00671586
-0.00634397
-0.00593382
-0.00545502
-0.00493979
-0.00436742
-0.00375034
-0.00308783
-0.00238056
-0.00164792
-0.000866262
-4.72479e-05
0.000802213
0.00170417
0.00262533
0.00357797
0.00453031
0.00550235
0.0064845
0.00746843
0.00847567
0.00945887
0.0104674
0.0114416
0.0124219
0.0133722
0.0143282
0.0152352
0.0161415
0.0170062
0.0178183
0.0186221
0.0193692
0.0200646
0.0207295
0.0213244
0.0218807
0.0223767
0.0228298
0.0231875
0.0235142
0.0237643
0.0239326
0.0240532
0.0240932
0.0240876
0.0240179
0.0238654
0.0236519
0.0233559
0.0230015
0.0225655
0.0220687
0.0215515
0.0209381
0.0202883
0.0195236
0.0187898
0.0179315
0.0170819
0.0161434
0.0151704
0.0141662
0.0131745
0.012129
0.0111217
0.010025
0.00896486
0.00784476
0.00674994
0.00567537
0.00457914
0.00347789
0.00237842
0.00135018
0.000263425
-0.000783786
-0.00177313
-0.00269712
-0.00369914
-0.00457351
-0.00548273
-0.00635006
-0.00705865
-0.00787439
-0.00854538
-0.00927051
-0.00983236
-0.010444
-0.0109408
-0.0113833
-0.0118557
-0.0121531
-0.0124059
-0.012648
-0.0128748
-0.0128455
-0.0129873
-0.0128761
-0.0126814
-0.0124484
-0.0118309
-0.0111942
-0.00985025
0.00100228
0.00197662
0.00350903
0.00521744
0.00687218
0.00844727
0.00990064
0.0112229
0.0123975
0.0133951
0.0142048
0.0148175
0.0152381
0.0154535
0.0154872
0.0153511
0.0150677
0.014666
0.0141777
0.0135923
0.0129322
0.0122326
0.0115145
0.0108027
0.0100989
0.00941413
0.00875093
0.00812586
0.00752952
0.00697043
0.00643659
0.00592582
0.00542692
0.00494299
0.00445149
0.00396461
0.00346436
0.00295893
0.00244424
0.00191779
0.00139132
0.000848825
0.000301636
-0.000253685
-0.000805078
-0.00136572
-0.00192366
-0.00247166
-0.00302695
-0.00356706
-0.00410513
-0.00462822
-0.00514263
-0.00563706
-0.0061175
-0.00657441
-0.00701262
-0.00741707
-0.00779659
-0.008162
-0.00847486
-0.00876853
-0.00901976
-0.00924996
-0.00942781
-0.00957137
-0.00967466
-0.00973231
-0.0097627
-0.00973472
-0.00966123
-0.00954958
-0.00938288
-0.00918646
-0.00894695
-0.0086505
-0.00831397
-0.00792626
-0.0075084
-0.00701909
-0.0065235
-0.00597095
-0.00536416
-0.0047351
-0.00404915
-0.00334911
-0.00259743
-0.00182492
-0.00103936
-0.000201339
0.000643818
0.00149448
0.00235836
0.00328643
0.00417494
0.0050599
0.00602305
0.00690694
0.00785901
0.00873441
0.00966128
0.0105114
0.0114141
0.0122084
0.0130711
0.0138634
0.0145656
0.0152951
0.0159783
0.0165224
0.01713
0.01764
0.0180522
0.0183827
0.0187625
0.0189895
0.0192258
0.0193359
0.0193559
0.0194432
0.0193789
0.0192855
0.0190896
0.0187487
0.0183787
0.0178832
0.0175378
0.0170034
0.0163371
0.0156273
0.0148554
0.0141903
0.0132794
0.0125181
0.0114881
0.0106564
0.00970702
0.00869925
0.00763911
0.00655183
0.0053203
0.00410665
0.00287346
0.00191379
0.000713313
-0.000573753
-0.00154633
-0.0026244
-0.00377976
-0.00506963
-0.00592505
-0.00691195
-0.00804901
-0.00919676
-0.0099563
-0.0110386
-0.0116954
-0.0126405
-0.0136217
-0.0141496
-0.0149995
-0.0154992
-0.0162235
-0.0166594
-0.0173228
-0.0176233
-0.0179444
-0.0184919
-0.0187324
-0.0188527
-0.0191912
-0.0195511
-0.0193375
-0.0196426
-0.0193158
-0.0191702
-0.0194804
-0.0188776
-0.0188539
-0.0186896
0.00127598
0.00245077
0.00406117
0.00562887
0.00701182
0.00821328
0.00922201
0.0100357
0.0106614
0.0111166
0.0114043
0.0115227
0.0114895
0.0113254
0.0110509
0.0106832
0.0102584
0.00979748
0.00931
0.00880178
0.00831289
0.00786025
0.00744054
0.00707712
0.00676006
0.00647462
0.0062034
0.00595209
0.00569509
0.00544097
0.00517923
0.00489965
0.00458335
0.00425902
0.00389662
0.00351565
0.00309701
0.00265414
0.00219443
0.00171708
0.00122998
0.000703178
0.000172515
-0.00036152
-0.000892553
-0.00144719
-0.00200018
-0.00253348
-0.00308325
-0.00361167
-0.00413489
-0.00465824
-0.00517366
-0.00567294
-0.00617768
-0.00665041
-0.00709303
-0.00749423
-0.00786978
-0.00824416
-0.00856757
-0.00887324
-0.00912817
-0.00936551
-0.00954457
-0.00968629
-0.00981456
-0.00988215
-0.00992562
-0.00990678
-0.0098669
-0.00977961
-0.00963474
-0.00943041
-0.00918732
-0.00892343
-0.00859933
-0.00824967
-0.00783842
-0.00737113
-0.00690102
-0.00636384
-0.00580633
-0.0052107
-0.00456304
-0.00386485
-0.00316573
-0.00242665
-0.00163536
-0.000842365
-7.2393e-06
0.000808038
0.00164449
0.00253552
0.00338939
0.00424919
0.00517001
0.0060137
0.00689448
0.00774317
0.00863945
0.0094765
0.0103208
0.0110682
0.0118492
0.0125863
0.0132865
0.013913
0.0145436
0.0150446
0.0155636
0.016015
0.0164087
0.0166833
0.0169595
0.0171614
0.0172989
0.0173802
0.0173875
0.0173691
0.0171672
0.0169738
0.0166994
0.0163704
0.0160302
0.0154793
0.0150264
0.0144028
0.0137492
0.0130019
0.0122023
0.0114442
0.0105511
0.00970955
0.0086744
0.00773467
0.00670678
0.00565392
0.0045894
0.00349131
0.00236215
0.00115193
-2.52112e-05
-0.00103978
-0.00217996
-0.00346243
-0.00452245
-0.00562859
-0.00665309
-0.00789817
-0.00886963
-0.00980972
-0.0107992
-0.0118996
-0.0127206
-0.0137329
-0.0144146
-0.0152467
-0.0160964
-0.0167374
-0.017487
-0.0180363
-0.0185806
-0.0190885
-0.0196479
-0.0200028
-0.0203387
-0.0206696
-0.0210619
-0.0211608
-0.0213524
-0.0215066
-0.0214283
-0.0215713
-0.0212246
-0.0210581
-0.0213241
-0.0207558
-0.0207339
-0.0206014
0.00120458
0.002124
0.00340947
0.00453723
0.00547646
0.00624143
0.00682932
0.00725546
0.0075366
0.00769254
0.00773553
0.00768091
0.00755401
0.00737244
0.00714781
0.00690328
0.00666589
0.00644172
0.00624049
0.00607131
0.00593964
0.00584045
0.00576265
0.00570904
0.00567013
0.00563318
0.00558585
0.00551727
0.00541094
0.00527708
0.00510685
0.00489185
0.00463198
0.00433987
0.00401099
0.00365668
0.00326657
0.00283872
0.00237903
0.00189784
0.00140361
0.000883211
0.000359442
-0.000181885
-0.00073193
-0.0012845
-0.00184203
-0.00239381
-0.00295208
-0.00349853
-0.00403611
-0.00456424
-0.00508342
-0.00558174
-0.0060659
-0.006527
-0.00696831
-0.00738747
-0.00777752
-0.00814367
-0.00847387
-0.00877755
-0.00904309
-0.00927852
-0.00947507
-0.0096312
-0.00975968
-0.00983605
-0.00987831
-0.00986999
-0.00983209
-0.00974472
-0.00962061
-0.00944595
-0.00922947
-0.00897207
-0.00866275
-0.00832516
-0.00793475
-0.00750303
-0.00703616
-0.00652078
-0.00597357
-0.00538323
-0.00476627
-0.00410207
-0.00342321
-0.00270761
-0.00195029
-0.0011884
-0.000382365
0.000421047
0.00124466
0.00208295
0.00291991
0.00375565
0.00461252
0.00545321
0.00628732
0.0071121
0.00793158
0.00872709
0.0095115
0.0102565
0.0109809
0.0116605
0.012321
0.0129113
0.0134885
0.0139842
0.0144465
0.0148481
0.0152041
0.0154756
0.0157022
0.0158705
0.0159546
0.0159962
0.015956
0.0158633
0.0156681
0.0154332
0.0151235
0.0147647
0.0143684
0.0138529
0.0133134
0.0126781
0.0120226
0.0112767
0.0104914
0.00965774
0.00877463
0.00786823
0.00688661
0.00589583
0.00485558
0.00378468
0.00271076
0.00161842
0.000538173
-0.000598775
-0.00171834
-0.00282759
-0.00393338
-0.00507899
-0.00618568
-0.00729197
-0.00830616
-0.00939016
-0.0104235
-0.0113967
-0.0123129
-0.0132809
-0.0141456
-0.0150279
-0.0157984
-0.0165534
-0.0172708
-0.0179233
-0.0185779
-0.0191766
-0.0196536
-0.0201533
-0.0205971
-0.0209754
-0.0213398
-0.0215379
-0.0219061
-0.0220557
-0.0221429
-0.0221632
-0.0221842
-0.0221998
-0.0219749
-0.0218386
-0.0218307
-0.0214754
-0.0213059
-0.0210849
0.000983881
0.0015378
0.00241604
0.00310963
0.00365539
0.00407627
0.00437893
0.00458425
0.00471172
0.00477584
0.00479093
0.00477364
0.00474213
0.00470764
0.00468398
0.00468341
0.0047091
0.00476538
0.00485324
0.00496558
0.00509908
0.0052436
0.00538892
0.00552632
0.00564204
0.00572883
0.00577719
0.00577756
0.00573073
0.00563444
0.0054897
0.00529111
0.0050541
0.0047742
0.00444916
0.00408713
0.00369162
0.00326276
0.00280463
0.0023223
0.00181936
0.00129723
0.000762931
0.0002151
-0.000338288
-0.000898333
-0.0014618
-0.00202203
-0.00258106
-0.00313381
-0.00367907
-0.00421206
-0.00473134
-0.00523374
-0.00571594
-0.0061796
-0.00662217
-0.00704434
-0.00743978
-0.00780767
-0.00814783
-0.00845419
-0.00872806
-0.00896771
-0.00917308
-0.00934176
-0.00947146
-0.00956272
-0.00961298
-0.00962286
-0.00959519
-0.00951833
-0.00940469
-0.00924959
-0.00905251
-0.00880577
-0.00852258
-0.00819763
-0.00782853
-0.00741978
-0.00696379
-0.00647604
-0.00594697
-0.00538347
-0.00478101
-0.00414931
-0.00348826
-0.00279751
-0.00207871
-0.0013342
-0.000560429
0.000219628
0.00101897
0.0018171
0.00262398
0.0034382
0.00425368
0.00507126
0.00587233
0.00667519
0.00745343
0.00821366
0.00895242
0.00967114
0.0103558
0.0110085
0.0116211
0.0121903
0.0127204
0.0132027
0.0136249
0.0139964
0.0143106
0.014569
0.0147717
0.0148969
0.0149593
0.0149682
0.0148974
0.014767
0.0145704
0.0143111
0.01399
0.0136065
0.0131551
0.0126555
0.0120741
0.0114515
0.0107654
0.0100308
0.0092399
0.00839918
0.00751071
0.00659629
0.00562552
0.00463199
0.00360639
0.00255691
0.00148619
0.000411787
-0.000662948
-0.00174695
-0.00283834
-0.0039484
-0.00504011
-0.00611053
-0.00719292
-0.00825759
-0.00928091
-0.0102863
-0.0112836
-0.0122538
-0.0131466
-0.0140226
-0.0148629
-0.0156738
-0.0164428
-0.0171579
-0.017824
-0.0184382
-0.0190316
-0.0195749
-0.0200561
-0.0204899
-0.0208804
-0.0212176
-0.0215327
-0.0217319
-0.0219537
-0.022107
-0.0221763
-0.0221971
-0.0221941
-0.0221727
-0.022064
-0.0219219
-0.0217423
-0.0215047
-0.021242
-0.0209941
0.00073228
0.000968612
0.00149679
0.00187123
0.00215901
0.00238149
0.0025527
0.00268999
0.00280658
0.00291242
0.00301885
0.00313771
0.00327789
0.00344289
0.00363954
0.00386707
0.00412057
0.00439674
0.00469095
0.00499253
0.00529208
0.0055769
0.00583782
0.00606479
0.00625071
0.0063924
0.00647496
0.00650047
0.00647118
0.0063839
0.00624287
0.00604597
0.00580573
0.00551801
0.00518061
0.00480763
0.0044029
0.00396392
0.00349802
0.00300563
0.00249113
0.00196095
0.00141757
0.000860082
0.000299792
-0.00026722
-0.000835222
-0.00140144
-0.00196573
-0.00252226
-0.00307104
-0.00360773
-0.00412986
-0.00463611
-0.00512351
-0.00559175
-0.00603932
-0.00646543
-0.00686433
-0.00723601
-0.00758083
-0.00789494
-0.0081767
-0.00842652
-0.00864141
-0.00882145
-0.00895938
-0.00906506
-0.00913049
-0.00915688
-0.00914198
-0.00908529
-0.00898384
-0.00884657
-0.00866822
-0.00844538
-0.00818579
-0.00787958
-0.00752942
-0.00714292
-0.00671296
-0.0062452
-0.00573741
-0.00520413
-0.00462835
-0.00402301
-0.00338631
-0.00272741
-0.0020389
-0.00131738
-0.000571165
0.000179324
0.00094477
0.00170929
0.00249381
0.00328538
0.00406555
0.00485438
0.00562931
0.0063979
0.00714827
0.00788026
0.00859579
0.00928109
0.00992583
0.0105552
0.0111305
0.011668
0.0121669
0.0126205
0.0130141
0.0133698
0.0136585
0.0138949
0.0140718
0.0141756
0.0142063
0.0141872
0.0141032
0.0139607
0.0137438
0.0134718
0.0131304
0.0127373
0.0122671
0.0117659
0.0111703
0.0105459
0.00984829
0.00912485
0.00833072
0.00749893
0.00659906
0.00569077
0.00473036
0.00374603
0.00273907
0.00171067
0.000654034
-0.000389869
-0.00144815
-0.00250685
-0.00357333
-0.00464727
-0.00571102
-0.00675889
-0.00779951
-0.00882419
-0.00981516
-0.010795
-0.0117451
-0.0126717
-0.01352
-0.0143647
-0.015158
-0.0159272
-0.0166598
-0.0173405
-0.0179678
-0.0185518
-0.0190876
-0.019586
-0.0200343
-0.0204338
-0.0207831
-0.0210862
-0.02135
-0.0215468
-0.0216818
-0.0217959
-0.0218611
-0.0218839
-0.0218616
-0.0218117
-0.0217403
-0.0215756
-0.0213714
-0.0211519
-0.020881
-0.0206091
0.000529414
0.000504056
0.000817379
0.00101857
0.00119024
0.00134915
0.00150818
0.00167899
0.00186941
0.00208352
0.00232705
0.0026042
0.00291812
0.0032665
0.00364645
0.00404922
0.00446839
0.00489892
0.00532713
0.00573946
0.00612877
0.00648554
0.00680202
0.0070665
0.00727514
0.00743102
0.00751625
0.00754004
0.00750217
0.00740906
0.00725631
0.00704807
0.00679082
0.00648829
0.00613996
0.0057537
0.0053312
0.00487606
0.00439792
0.00389106
0.00336323
0.00282041
0.00226625
0.00169775
0.0011277
0.000553739
-2.21118e-05
-0.000593474
-0.00116123
-0.00172039
-0.00227135
-0.00281015
-0.00333511
-0.00384399
-0.00433541
-0.00480687
-0.00525921
-0.00568851
-0.00609212
-0.00646786
-0.00682142
-0.00714304
-0.00743275
-0.007693
-0.00791808
-0.00811009
-0.00826461
-0.00838536
-0.00846403
-0.0085075
-0.00850585
-0.00846596
-0.00838216
-0.00826404
-0.00810661
-0.00790366
-0.00766336
-0.00737882
-0.00705406
-0.00669777
-0.00629054
-0.00584567
-0.00536189
-0.00484847
-0.00430434
-0.00373009
-0.00312217
-0.00249654
-0.00183223
-0.00114452
-0.000434514
0.000285617
0.00102315
0.00176085
0.00252058
0.00328218
0.00403006
0.00479066
0.00553448
0.00626912
0.00698995
0.00769107
0.00837525
0.00903598
0.00965044
0.0102494
0.0108007
0.0113167
0.0117848
0.0122131
0.0125827
0.0129122
0.0131721
0.0133854
0.0135366
0.013632
0.0136462
0.0136073
0.0135096
0.0133457
0.0131234
0.0128454
0.0124916
0.0120881
0.0116099
0.0111068
0.0105149
0.00988492
0.00919759
0.00847548
0.00768138
0.00686367
0.00597058
0.00506988
0.00413211
0.00314929
0.00216052
0.0011586
0.000131739
-0.000881074
-0.00192098
-0.00295865
-0.00399818
-0.00504125
-0.00607018
-0.00708993
-0.0080889
-0.00907875
-0.0100408
-0.0109765
-0.0118821
-0.0127626
-0.013577
-0.0144066
-0.0151475
-0.0158769
-0.0165759
-0.0172185
-0.0178079
-0.0183566
-0.0188485
-0.0193147
-0.0197302
-0.0200984
-0.0204184
-0.020689
-0.0209265
-0.0211037
-0.0211987
-0.0212756
-0.0213304
-0.0213304
-0.0213017
-0.0212337
-0.0211395
-0.02097
-0.0207693
-0.0205646
-0.0203024
-0.0200334
0.000372779
0.000217761
0.000429864
0.000578359
0.000745263
0.00093344
0.00115264
0.00141052
0.00171065
0.00205506
0.00244091
0.00286622
0.00333344
0.00382992
0.00434704
0.00487478
0.00540458
0.00593062
0.00643711
0.00691161
0.00734576
0.00772935
0.0080578
0.00833115
0.00853929
0.00868392
0.00875534
0.00876296
0.00870886
0.00859793
0.00842202
0.00819237
0.00791282
0.00758751
0.00721548
0.00680773
0.00636466
0.00589327
0.0054
0.00487912
0.00433892
0.00378365
0.00321859
0.00264388
0.00206961
0.00149109
0.000911722
0.000339347
-0.000228964
-0.000789098
-0.00134045
-0.00187953
-0.00240321
-0.00291159
-0.00340338
-0.00387611
-0.00433071
-0.00475871
-0.00516615
-0.00554743
-0.00590743
-0.00623202
-0.00653071
-0.00680094
-0.00703385
-0.00723364
-0.00740034
-0.00753332
-0.00762569
-0.00768267
-0.00769856
-0.00767692
-0.00761758
-0.00751914
-0.0073807
-0.00719611
-0.00697876
-0.00671947
-0.00642055
-0.00609072
-0.00571428
-0.00530415
-0.00485163
-0.00436419
-0.00384878
-0.00329829
-0.00271567
-0.00211656
-0.00148568
-0.000833029
-0.000155389
0.000533288
0.00124639
0.00195791
0.00268158
0.0034005
0.00411375
0.00484141
0.00555834
0.00626809
0.00695433
0.00762864
0.00827663
0.00890734
0.00949908
0.0100673
0.0105901
0.0110817
0.0115206
0.011931
0.0122789
0.012586
0.0128201
0.0130167
0.0131469
0.0132208
0.0132267
0.0131768
0.013067
0.0128858
0.0126643
0.0123748
0.012028
0.0116117
0.0111252
0.0106183
0.0100364
0.00940736
0.00871926
0.00800194
0.00721647
0.00641496
0.00555616
0.00466972
0.00375339
0.00278577
0.00181409
0.000839998
-0.000158367
-0.00115347
-0.00215996
-0.00316722
-0.00417409
-0.00518706
-0.00618238
-0.00716331
-0.00811875
-0.00906378
-0.00999345
-0.010885
-0.0117579
-0.0125953
-0.0133929
-0.0141897
-0.0148984
-0.0155919
-0.0162472
-0.0168625
-0.0174148
-0.0179353
-0.018398
-0.0188269
-0.0192151
-0.0195474
-0.0198419
-0.0200835
-0.0202875
-0.0204496
-0.020534
-0.0205994
-0.0206342
-0.0206038
-0.0205659
-0.0204894
-0.0203735
-0.0202208
-0.0200104
-0.0198187
-0.0195512
-0.0193044
0.000287854
0.000113364
0.000307736
0.000480364
0.000701987
0.000968568
0.00129127
0.00166794
0.00209361
0.00256881
0.00308711
0.00364789
0.00424339
0.00485119
0.00546882
0.00608816
0.00669295
0.00727531
0.00781894
0.00831541
0.0087581
0.00914275
0.00946873
0.00972954
0.00991636
0.0100331
0.0100786
0.0100574
0.00996982
0.00982385
0.00961928
0.00935906
0.00905222
0.008702
0.00830752
0.0078777
0.00741428
0.00693084
0.00642225
0.00588561
0.0053404
0.00478213
0.0042151
0.00364065
0.00306674
0.0024885
0.0019109
0.00134095
0.000775481
0.000219947
-0.00032573
-0.000859668
-0.00137822
-0.00188197
-0.00237009
-0.00283803
-0.00328818
-0.00371376
-0.00412194
-0.00450114
-0.00486047
-0.00518803
-0.00549261
-0.00576548
-0.00600733
-0.00621698
-0.00639142
-0.00653288
-0.00663985
-0.00671126
-0.00674418
-0.00674142
-0.00669888
-0.00661782
-0.0064995
-0.0063351
-0.00613938
-0.00590556
-0.00563226
-0.00532295
-0.00497791
-0.00459622
-0.00417443
-0.00371913
-0.0032392
-0.00271664
-0.00216803
-0.00159354
-0.00100318
-0.000379039
0.000266294
0.000920232
0.00159253
0.00226141
0.0029503
0.00364508
0.00432664
0.00502115
0.00570548
0.00637517
0.00702289
0.00767057
0.00828866
0.00888509
0.00944633
0.0099877
0.0104879
0.0109528
0.0113676
0.0117467
0.0120631
0.0123471
0.0125678
0.0127475
0.0128652
0.0129213
0.01291
0.0128524
0.0127327
0.0125508
0.0123205
0.0120221
0.0116843
0.0112664
0.0107891
0.0102826
0.0097034
0.00907977
0.00839761
0.00770088
0.00693213
0.00613993
0.00530457
0.00444223
0.00354741
0.00261522
0.00167573
0.000723687
-0.000254532
-0.00122866
-0.00219896
-0.00316567
-0.00413806
-0.00510984
-0.00607662
-0.00702187
-0.00794635
-0.00884341
-0.00974403
-0.0105898
-0.0114284
-0.0122284
-0.012999
-0.0137415
-0.014429
-0.015103
-0.0157199
-0.0162941
-0.0168147
-0.0173127
-0.0177587
-0.0181499
-0.0185177
-0.0188178
-0.0190824
-0.0193057
-0.0194833
-0.019631
-0.0197019
-0.0197678
-0.0197895
-0.0197461
-0.0196956
-0.0195988
-0.019488
-0.0193455
-0.0191209
-0.0189226
-0.0186557
-0.0184304
0.00032051
0.000122536
0.000364337
0.00061307
0.000930457
0.00131086
0.00175406
0.00225271
0.00280112
0.0033968
0.00403438
0.00470448
0.00539156
0.00608158
0.00677218
0.00745007
0.00809611
0.00870676
0.00926852
0.00977026
0.0102105
0.010584
0.010885
0.01111
0.011256
0.0113316
0.0113428
0.011286
0.0111626
0.0109826
0.0107474
0.0104529
0.0101205
0.00974903
0.00933516
0.00889268
0.0084175
0.00792083
0.00740504
0.00686606
0.00632064
0.00576427
0.00520152
0.00463277
0.00406606
0.00349683
0.00292971
0.00237072
0.00181704
0.00127363
0.000740709
0.000218674
-0.000288961
-0.000781068
-0.00125836
-0.00171535
-0.00215579
-0.00257496
-0.00297553
-0.00334738
-0.00370135
-0.0040287
-0.00433047
-0.00460434
-0.00484795
-0.00506141
-0.00524713
-0.00539376
-0.00551037
-0.00559639
-0.00564016
-0.00564911
-0.00561908
-0.00555665
-0.00546204
-0.00531646
-0.00513901
-0.00492889
-0.00468599
-0.004396
-0.00407345
-0.00371882
-0.00333114
-0.00290789
-0.00246309
-0.00198118
-0.00146945
-0.000931574
-0.000376987
0.000209794
0.000815486
0.00143711
0.00206853
0.0027025
0.00334833
0.00400342
0.00464867
0.00530115
0.00594724
0.00658489
0.00720106
0.00781225
0.00839576
0.00896289
0.00949356
0.0100015
0.0104712
0.0109041
0.0112927
0.0116428
0.0119344
0.0121942
0.0123987
0.0125605
0.0126573
0.0126939
0.0126795
0.0126165
0.0124799
0.0122943
0.0120573
0.0117563
0.0114204
0.011005
0.0105516
0.0100427
0.00946515
0.00886148
0.00820892
0.00752386
0.00676897
0.00599632
0.00518597
0.00435922
0.00348905
0.00259643
0.00168644
0.000765529
-0.000173544
-0.0011165
-0.00205688
-0.00298429
-0.00392429
-0.00485534
-0.00578322
-0.00668702
-0.00758269
-0.00844799
-0.00931163
-0.0101185
-0.0109173
-0.0116747
-0.01241
-0.0131174
-0.0137735
-0.0144202
-0.014996
-0.0155307
-0.0160315
-0.0165023
-0.0169367
-0.0172993
-0.0176445
-0.0179246
-0.0181636
-0.0183757
-0.0185384
-0.0186735
-0.0187393
-0.0188034
-0.018816
-0.0187589
-0.0186985
-0.0185871
-0.0184879
-0.0183366
-0.0181226
-0.0179222
-0.0176713
-0.0174687
0.000288416
0.000234235
0.000514467
0.00089475
0.00134427
0.0018437
0.00239714
0.00300489
0.00366187
0.00436584
0.00509989
0.00585212
0.00661322
0.00736991
0.00811059
0.00882212
0.00949144
0.0101096
0.0106602
0.0111388
0.0115501
0.0118905
0.0121493
0.0123318
0.0124405
0.0124789
0.0124469
0.0123405
0.0121786
0.0119656
0.0117017
0.0113866
0.0110358
0.0106481
0.0102224
0.00977062
0.00929607
0.00880043
0.00828635
0.007757
0.0072218
0.00667657
0.00612904
0.0055765
0.0050283
0.00447987
0.00393412
0.00339489
0.00286336
0.00234148
0.00183002
0.00132992
0.000843252
0.00037106
-8.56065e-05
-0.000524756
-0.000949589
-0.00135384
-0.00173799
-0.00209937
-0.00244405
-0.00276296
-0.0030556
-0.00332415
-0.00356489
-0.0037768
-0.00396238
-0.00411355
-0.00423657
-0.004325
-0.00437736
-0.00439707
-0.00438392
-0.00433367
-0.00425084
-0.00412768
-0.00397832
-0.0037886
-0.00356378
-0.00329749
-0.00300525
-0.0026778
-0.00232535
-0.00193719
-0.00151624
-0.00106714
-0.000592254
-0.000100502
0.000415772
0.000953913
0.00151563
0.00209132
0.00268537
0.00327778
0.00387894
0.00448952
0.00509479
0.0057026
0.00631082
0.00690666
0.00748146
0.0080551
0.00859884
0.00912909
0.00961838
0.010089
0.0105239
0.0109235
0.0112817
0.0116095
0.0118746
0.0121092
0.0122837
0.0124175
0.0124942
0.0125117
0.0124875
0.0124147
0.0122794
0.0120935
0.0118512
0.0115462
0.011213
0.0108054
0.0103651
0.00986618
0.00930398
0.00872601
0.00809017
0.00741568
0.00669485
0.00595473
0.00516674
0.0043674
0.00353062
0.00267925
0.00180485
0.000931715
3.35001e-05
-0.000883475
-0.00178547
-0.00267804
-0.00358178
-0.00446698
-0.0053462
-0.0062074
-0.00706105
-0.00789544
-0.00871819
-0.00948705
-0.0102528
-0.0109745
-0.0116695
-0.0123465
-0.0129623
-0.0135738
-0.0141167
-0.0146381
-0.0151154
-0.0155412
-0.0159504
-0.0162977
-0.0166301
-0.0168948
-0.0171172
-0.0173163
-0.017459
-0.0175852
-0.0176413
-0.0176927
-0.0176982
-0.0176557
-0.0175911
-0.0174866
-0.0173708
-0.0172209
-0.0170107
-0.0168283
-0.0165901
-0.0164099
0.000266553
0.000359951
0.000756279
0.00129105
0.00185831
0.00244872
0.00308863
0.00378338
0.00452937
0.00531835
0.00613017
0.00695387
0.00777068
0.00856382
0.00932397
0.0100348
0.0106927
0.0112895
0.0118079
0.0122541
0.0126266
0.0129197
0.0131302
0.0132666
0.0133278
0.0133219
0.0132532
0.013118
0.0129285
0.0126913
0.0124063
0.0120735
0.0117119
0.0113183
0.0108942
0.0104478
0.00998067
0.00949524
0.00900157
0.00849482
0.00798364
0.0074652
0.00694765
0.00642516
0.00590759
0.00539067
0.00487782
0.00437202
0.00387607
0.00338873
0.00291039
0.0024435
0.00198895
0.00154798
0.00112015
0.00070818
0.000311344
-6.8283e-05
-0.000431063
-0.000772996
-0.00109773
-0.00139759
-0.00167443
-0.00192953
-0.00215849
-0.00236132
-0.00254244
-0.00269012
-0.00280972
-0.00289875
-0.00295684
-0.00298032
-0.00298166
-0.00293976
-0.00287237
-0.00276788
-0.00263475
-0.00247082
-0.00226707
-0.00203107
-0.00176743
-0.00146752
-0.00114485
-0.000783956
-0.000404811
1.38155e-06
0.000431729
0.000882746
0.00136277
0.00186396
0.00238498
0.00291049
0.00345667
0.00399705
0.00454851
0.00511001
0.00566531
0.00622472
0.00678628
0.00732552
0.00786178
0.00838935
0.00888492
0.00936578
0.00981323
0.010243
0.0106369
0.0109976
0.0113206
0.0116141
0.0118463
0.0120554
0.0121998
0.0123065