/*--------------------------------*- C++ -*----------------------------------*\
  =========                 |
  \\      /  F ield         | OpenFOAM: The Open Source CFD Toolbox
   \\    /   O peration     | Website:  https://openfoam.org
    \\  /    A nd           | Version:  8
     \\/     M anipulation  |
\*---------------------------------------------------------------------------*/
FoamFile
{
    version     2.0;
    format      ascii;
    class       volScalarField;
    location    "200";
    object      upod_0;
}
// * * * * * * * * * * * * * * * * * * * * * * * * * * * * * * * * * * * * * //

dimensions      [0 1 -1 0 0 0 0];

internalField   nonuniform List<scalar> 
12225
(
-0.0135641
-0.0132685
-0.0129788
-0.0126485
-0.0123444
-0.0120794
-0.011849
-0.0116503
-0.0114776
-0.0113297
-0.0112
-0.0110864
-0.0109836
-0.0108905
-0.0107952
-0.0107248
-0.0105889
-0.0105562
-0.0138345
-0.0139027
-0.0138974
-0.0138327
-0.0137599
-0.0136839
-0.0136015
-0.0135113
-0.0134189
-0.0133254
-0.0132326
-0.0131446
-0.0130594
-0.0129787
-0.0129023
-0.0128308
-0.0127665
-0.0127459
-0.0137624
-0.0137842
-0.0138137
-0.013816
-0.0138112
-0.0138008
-0.0137835
-0.0137583
-0.0137286
-0.0136945
-0.0136572
-0.0136196
-0.0135803
-0.0135404
-0.0135006
-0.0134595
-0.0134275
-0.01342
-0.0137527
-0.0137611
-0.0137868
-0.0137936
-0.0137969
-0.0137985
-0.0137973
-0.0137918
-0.0137836
-0.0137728
-0.0137599
-0.0137463
-0.0137314
-0.0137156
-0.0136998
-0.0136834
-0.0136725
-0.0136765
-0.0137533
-0.0137594
-0.0137783
-0.0137814
-0.0137839
-0.0137872
-0.0137898
-0.0137899
-0.0137885
-0.0137854
-0.0137812
-0.0137764
-0.013771
-0.0137652
-0.0137599
-0.0137551
-0.0137541
-0.0137616
-0.0137536
-0.0137585
-0.013774
-0.013775
-0.0137767
-0.0137798
-0.0137829
-0.0137844
-0.0137851
-0.0137847
-0.0137838
-0.0137826
-0.0137812
-0.0137799
-0.0137794
-0.0137798
-0.013783
-0.013791
-0.0137532
-0.0137565
-0.0137712
-0.0137721
-0.0137736
-0.0137762
-0.0137789
-0.0137807
-0.0137821
-0.0137829
-0.0137834
-0.0137839
-0.0137846
-0.0137856
-0.0137876
-0.0137907
-0.0137954
-0.0138029
-0.0137526
-0.0137549
-0.0137695
-0.0137709
-0.0137727
-0.013775
-0.0137775
-0.0137794
-0.0137812
-0.0137825
-0.0137839
-0.0137855
-0.0137875
-0.01379
-0.0137933
-0.0137978
-0.0138028
-0.0138098
-0.0137521
-0.013754
-0.0137682
-0.0137703
-0.0137728
-0.0137753
-0.0137779
-0.01378
-0.0137821
-0.013784
-0.0137861
-0.0137886
-0.0137915
-0.0137949
-0.0137992
-0.0138044
-0.0138094
-0.0138159
-0.0137516
-0.0137536
-0.0137673
-0.01377
-0.0137733
-0.0137762
-0.013779
-0.0137814
-0.013784
-0.0137865
-0.0137893
-0.0137925
-0.0137962
-0.0138004
-0.0138053
-0.013811
-0.0138159
-0.0138223
-0.0137514
-0.0137539
-0.0137662
-0.0137691
-0.0137731
-0.0137763
-0.0137794
-0.0137822
-0.0137852
-0.0137883
-0.0137917
-0.0137956
-0.0138
-0.013805
-0.0138106
-0.0138167
-0.0138219
-0.0138281
-0.0137516
-0.0137517
-0.0137608
-0.0137641
-0.0137692
-0.0137736
-0.0137779
-0.0137822
-0.0137866
-0.0137912
-0.013796
-0.0138013
-0.0138071
-0.0138134
-0.0138201
-0.0138273
-0.0138334
-0.0138409
-0.013751
-0.0137496
-0.0137567
-0.0137593
-0.0137659
-0.0137721
-0.0137785
-0.0137851
-0.0137919
-0.0137987
-0.0138056
-0.0138128
-0.0138204
-0.0138283
-0.0138363
-0.013845
-0.0138519
-0.013862
-0.0137491
-0.0137509
-0.0137594
-0.0137622
-0.0137694
-0.0137766
-0.0137843
-0.0137924
-0.013801
-0.0138097
-0.0138184
-0.0138273
-0.0138363
-0.0138454
-0.0138546
-0.0138641
-0.0138709
-0.0138816
-0.0137469
-0.0137501
-0.0137623
-0.0137681
-0.0137771
-0.0137854
-0.0137943
-0.0138036
-0.0138135
-0.0138234
-0.0138334
-0.0138434
-0.0138534
-0.0138632
-0.0138729
-0.0138826
-0.0138891
-0.0138999
-0.0137453
-0.0137474
-0.0137616
-0.0137711
-0.0137833
-0.013794
-0.0138045
-0.0138154
-0.0138264
-0.0138373
-0.0138481
-0.0138587
-0.0138691
-0.0138791
-0.0138887
-0.0138982
-0.0139041
-0.0139141
-0.0137445
-0.0137442
-0.0137578
-0.0137696
-0.0137843
-0.0137975
-0.0138098
-0.0138221
-0.0138344
-0.0138464
-0.0138579
-0.0138688
-0.0138793
-0.0138892
-0.0138985
-0.0139076
-0.0139127
-0.0139224
-0.0137446
-0.0137412
-0.0137533
-0.0137656
-0.0137817
-0.0137963
-0.0138098
-0.0138233
-0.0138364
-0.0138489
-0.0138607
-0.0138718
-0.0138821
-0.0138916
-0.0139005
-0.0139091
-0.0139134
-0.0139228
-0.0137448
-0.0137398
-0.0137508
-0.0137625
-0.0137785
-0.0137933
-0.0138072
-0.0138205
-0.0138333
-0.0138454
-0.0138565
-0.0138669
-0.0138764
-0.0138851
-0.0138931
-0.0139009
-0.0139045
-0.0139134
-0.0137456
-0.013742
-0.0137519
-0.0137609
-0.0137743
-0.0137869
-0.0137988
-0.0138103
-0.0138216
-0.0138321
-0.013842
-0.0138511
-0.0138596
-0.0138675
-0.0138748
-0.0138818
-0.0138852
-0.013893
-0.0137459
-0.0137441
-0.0137546
-0.0137625
-0.0137744
-0.0137853
-0.0137956
-0.0138056
-0.0138155
-0.0138248
-0.0138335
-0.0138415
-0.0138489
-0.0138558
-0.0138621
-0.0138683
-0.0138711
-0.0138777
-0.0137465
-0.0137461
-0.0137576
-0.0137649
-0.0137755
-0.0137848
-0.0137936
-0.0138022
-0.0138106
-0.0138184
-0.0138256
-0.0138323
-0.0138384
-0.0138441
-0.0138492
-0.0138542
-0.0138562
-0.0138615
-0.0137472
-0.0137478
-0.0137601
-0.0137668
-0.0137757
-0.0137831
-0.0137902
-0.0137971
-0.0138037
-0.0138098
-0.0138153
-0.0138203
-0.013825
-0.0138292
-0.013833
-0.0138367
-0.0138379
-0.0138415
-0.0137482
-0.0137492
-0.0137616
-0.0137668
-0.0137737
-0.0137792
-0.0137846
-0.0137897
-0.0137946
-0.013799
-0.0138029
-0.0138065
-0.0138098
-0.0138128
-0.0138155
-0.0138181
-0.0138186
-0.0138212
-0.0137492
-0.0137496
-0.0137617
-0.013765
-0.0137695
-0.0137734
-0.0137777
-0.0137819
-0.0137857
-0.0137888
-0.0137917
-0.0137942
-0.0137964
-0.0137983
-0.0137999
-0.0138013
-0.0138011
-0.0138022
-0.0137487
-0.0137463
-0.0137591
-0.0137625
-0.013766
-0.0137694
-0.0137736
-0.0137775
-0.0137806
-0.0137829
-0.0137847
-0.0137859
-0.0137866
-0.0137869
-0.0137867
-0.0137862
-0.0137844
-0.0137829
-0.0137452
-0.0137375
-0.0137537
-0.0137621
-0.0137686
-0.0137736
-0.0137778
-0.0137805
-0.0137816
-0.0137815
-0.0137802
-0.013778
-0.0137751
-0.0137713
-0.0137669
-0.0137622
-0.0137562
-0.0137501
-0.0137466
-0.0137443
-0.0137624
-0.0137723
-0.013781
-0.0137864
-0.0137876
-0.0137838
-0.013777
-0.0137675
-0.0137553
-0.0137424
-0.0137283
-0.0137127
-0.013697
-0.0136811
-0.013664
-0.0136467
-0.0137937
-0.0138477
-0.013859
-0.0138328
-0.013806
-0.0137783
-0.0137456
-0.013706
-0.0136643
-0.01362
-0.0135733
-0.0135287
-0.0134844
-0.0134393
-0.0133973
-0.0133571
-0.0133163
-0.0132769
-0.0136674
-0.0135563
-0.0134076
-0.0132048
-0.0130045
-0.0128226
-0.0126614
-0.0125177
-0.0123914
-0.0122799
-0.012181
-0.0120938
-0.0120158
-0.0119456
-0.0118827
-0.0118259
-0.0117724
-0.011721
-3.49051e-05
-7.04691e-05
-0.000101932
-0.000128622
-0.000140255
-0.000139417
-0.000128041
-0.000106341
-7.5573e-05
-3.72895e-05
6.56364e-06
5.47225e-05
0.00010714
0.000162558
0.000219858
0.00027885
0.000340406
0.000403555
0.00047067
0.000540971
0.000614324
0.000692622
0.000776056
0.000859436
0.000946214
0.00103548
0.0011267
0.00121923
0.00131221
0.00140517
0.0014972
0.00158747
0.00167507
0.00176038
0.00184229
0.00192111
0.00199638
0.00206861
0.0021373
0.00220293
0.0022653
0.00232486
0.00238124
0.002435
0.00248604
0.00253479
0.00258089
0.00262499
0.0026669
0.00270692
0.00274476
0.00278107
0.00281539
0.00284814
0.00287908
0.00290878
0.0029367
0.00296323
0.00298826
0.00301201
0.00303401
0.00305476
0.00307399
0.00309187
0.003108
0.00312291
0.00313604
0.00314769
0.0031576
0.00316609
0.00317267
0.00317769
0.0031809
0.00318243
0.00318188
0.0031796
0.00317518
0.00316885
0.00316057
0.00315028
0.00313785
0.00312354
0.00310699
0.00308852
0.00306775
0.00304493
0.0030199
0.00299291
0.00296388
0.00293291
0.00289984
0.00286435
0.00282649
0.00278633
0.00274408
0.00269981
0.00265342
0.00260519
0.00255488
0.00250281
0.00244875
0.00239297
0.00233527
0.00227601
0.00221494
0.0021524
0.00208848
0.00202294
0.00195615
0.00188811
0.00181869
0.00174816
0.00167645
0.00160362
0.00152968
0.00145502
0.00137923
0.0013027
0.00122547
0.00114755
0.0010691
0.000989828
0.000909908
0.000829608
0.000749017
0.000668346
0.000587354
0.000506388
0.000425217
0.00034361
0.00026233
0.000181108
0.000100288
1.90535e-05
-6.15082e-05
-0.00014203
-0.000221877
-0.000301449
-0.000380741
-0.000459782
-0.000538204
-0.000616584
-0.000694093
-0.000771346
-0.000847628
-0.000923626
-0.000999208
-0.00107403
-0.00114782
-0.00122096
-0.00129371
-0.00136523
-0.00143603
-0.00150646
-0.00157628
-0.00164454
-0.00171258
-0.00177932
-0.00184542
-0.00191128
-0.0019753
-0.00203891
-0.00210117
-0.00216317
-0.00222361
-0.00228349
-0.00234241
-0.00239977
-0.00245684
-0.00251269
-0.00256674
-0.00261882
-0.00267011
-0.00271717
-0.00276158
-0.00280009
-0.00283073
-0.00284235
-0.00284069
-0.00270806
-1.64283e-05
-4.33134e-05
-5.23648e-05
-4.8175e-05
-3.3469e-05
-9.74243e-06
2.19366e-05
6.00788e-05
0.000103884
0.000153164
0.000207454
0.000266441
0.000330165
0.000398728
0.000471443
0.000548141
0.000628565
0.0007126
0.000799627
0.000889013
0.00097978
0.0010719
0.00116507
0.00125874
0.00135187
0.00144346
0.00153295
0.00161978
0.00170344
0.00178368
0.00186056
0.00193387
0.0020037
0.00206998
0.00213296
0.00219261
0.00224918
0.00230272
0.00235338
0.00240137
0.00244681
0.00248999
0.00253099
0.00256999
0.00260703
0.00264236
0.00267596
0.0027079
0.00273833
0.00276719
0.00279456
0.00282044
0.0028449
0.00286798
0.00288971
0.00291011
0.00292918
0.00294686
0.0029632
0.00297827
0.00299183
0.00300409
0.00301494
0.00302451
0.00303255
0.00303916
0.00304429
0.00304786
0.00304996
0.00305041
0.00304924
0.00304647
0.00304197
0.00303587
0.00302801
0.00301831
0.00300681
0.00299349
0.00297846
0.00296142
0.00294271
0.00292205
0.00289939
0.00287492
0.00284833
0.0028199
0.00278939
0.00275702
0.00272295
0.00268699
0.00264918
0.0026093
0.00256733
0.00252312
0.00247732
0.00242972
0.00237981
0.00232856
0.0022751
0.00222027
0.00216334
0.00210506
0.00204466
0.00198308
0.00191934
0.00185432
0.00178821
0.0017203
0.00165107
0.00158112
0.00150926
0.00143649
0.00136288
0.00128833
0.00121211
0.00113551
0.00105768
0.000979386
0.000900518
0.000820136
0.000739605
0.000658281
0.000576601
0.000494938
0.000412666
0.000330401
0.000246732
0.000163662
8.09882e-05
-1.85563e-06
-8.47338e-05
-0.000168428
-0.000250826
-0.000334135
-0.000416035
-0.000499127
-0.000581491
-0.000663302
-0.000744568
-0.00082543
-0.000905045
-0.00098434
-0.00106315
-0.00114303
-0.00122091
-0.00129774
-0.00137591
-0.00145258
-0.00152805
-0.00160207
-0.00167796
-0.00175209
-0.00182432
-0.00189557
-0.00196826
-0.00203798
-0.00210906
-0.00217753
-0.00224469
-0.00231356
-0.0023794
-0.00244617
-0.00251058
-0.00257551
-0.00263807
-0.00270156
-0.00276372
-0.00282331
-0.00288346
-0.00294296
-0.00299966
-0.0030546
-0.00311096
-0.00316193
-0.00321345
-0.00325966
-0.00329825
-0.00333164
-0.00336017
-0.00334615
6.94131e-06
8.51922e-06
2.87074e-05
5.65048e-05
8.9217e-05
0.000126812
0.000169181
0.000215959
0.000266899
0.000321811
0.000380567
0.000443139
0.0005094
0.000579202
0.000652274
0.000728312
0.000806814
0.000887271
0.000969075
0.00105143
0.00113321
0.00121383
0.0012932
0.00137088
0.00144633
0.00151918
0.00158925
0.00165628
0.00172035
0.00178143
0.00183973
0.00189544
0.0019488
0.00199979
0.00204871
0.00209553
0.00214046
0.0021835
0.00222468
0.00226407
0.00230172
0.00233788
0.00237242
0.0024054
0.00243686
0.002467
0.00249571
0.00252293
0.00254892
0.0025735
0.00259678
0.00261882
0.00263963
0.00265917
0.0026776
0.00269472
0.00271055
0.00272507
0.00273834
0.0027505
0.00276126
0.00277083
0.00277902
0.00278602
0.00279155
0.00279573
0.00279867
0.00280007
0.0028001
0.00279857
0.00279565
0.00279116
0.00278503
0.0027772
0.00276776
0.00275677
0.00274396
0.00272954
0.00271328
0.00269517
0.00267549
0.00265384
0.00263046
0.00260523
0.00257802
0.00254883
0.00251794
0.00248513
0.00245042
0.0024141
0.00237579
0.00233566
0.00229349
0.00224916
0.00220324
0.00215549
0.00210557
0.00205432
0.00200107
0.0019462
0.00188928
0.00183093
0.00177077
0.0017094
0.00164613
0.00158147
0.00151543
0.00144821
0.00137941
0.00130984
0.00123866
0.00116643
0.00109313
0.00101913
0.000943783
0.000867626
0.000790659
0.000712843
0.000634333
0.000554911
0.000475548
0.000395181
0.000314379
0.000233079
0.000151108
6.97179e-05
-1.28013e-05
-9.48142e-05
-0.000177074
-0.000259271
-0.000341468
-0.000424092
-0.000506053
-0.000588429
-0.000669796
-0.000751677
-0.000832932
-0.000913825
-0.00099445
-0.00107458
-0.00115416
-0.0012329
-0.00131142
-0.00139033
-0.00146792
-0.00154413
-0.00162109
-0.00169704
-0.00177264
-0.00184628
-0.00192073
-0.00199443
-0.00206689
-0.00213792
-0.00220967
-0.00227927
-0.00234969
-0.00241831
-0.00248578
-0.00255352
-0.00261952
-0.00268557
-0.00275064
-0.00281487
-0.0028777
-0.00294063
-0.00300247
-0.00306313
-0.00312227
-0.00318175
-0.00323915
-0.00329515
-0.00335067
-0.00340256
-0.00345437
-0.0035013
-0.00354118
-0.0035779
-0.00360929
-0.00362133
3.14627e-05
5.42761e-05
9.49726e-05
0.000139933
0.000186283
0.000234293
0.00028437
0.000336648
0.000391201
0.000448076
0.000507304
0.000568862
0.000632611
0.000698386
0.000765966
0.000834948
0.000904809
0.000975044
0.00104507
0.00111425
0.00118199
0.00124789
0.00131181
0.00137355
0.00143299
0.00149011
0.00154493
0.00159753
0.00164809
0.00169665
0.0017434
0.00178852
0.00183211
0.00187419
0.00191486
0.0019541
0.001992
0.0020286
0.00206389
0.00209786
0.00213045
0.0021618
0.0021918
0.00222056
0.00224807
0.00227432
0.00229936
0.00232315
0.00234579
0.0023672
0.00238743
0.00240649
0.00242441
0.00244114
0.00245673
0.00247115
0.00248443
0.00249657
0.00250753
0.00251733
0.00252591
0.00253332
0.00253948
0.00254443
0.00254811
0.00255047
0.00255158
0.00255127
0.00254963
0.00254654
0.0025421
0.00253614
0.00252873
0.00251974
0.00250919
0.00249704
0.0024832
0.0024678
0.00245067
0.00243183
0.0024113
0.00238897
0.0023649
0.00233902
0.00231139
0.00228186
0.00225061
0.00221753
0.00218263
0.00214615
0.00210771
0.00206745
0.00202522
0.00198113
0.00193529
0.00188771
0.00183826
0.00178716
0.00173436
0.00167987
0.00162368
0.0015659
0.00150647
0.00144558
0.00138316
0.00131941
0.0012542
0.00118785
0.00112006
0.00105126
0.000981197
0.000910082
0.000837865
0.000764787
0.000690683
0.000615696
0.000540032
0.000463485
0.000386327
0.000308447
0.000230175
0.000151201
7.18043e-05
-8.07698e-06
-8.84535e-05
-0.000168764
-0.000249487
-0.000330133
-0.000411077
-0.000491911
-0.000572819
-0.000653646
-0.000734307
-0.000814944
-0.000895217
-0.000975397
-0.00105515
-0.00113451
-0.00121364
-0.00129236
-0.0013708
-0.00144855
-0.00152598
-0.00160294
-0.00167934
-0.00175494
-0.00183016
-0.00190466
-0.00197891
-0.00205205
-0.00212469
-0.00219677
-0.00226826
-0.00233864
-0.00240874
-0.00247772
-0.00254632
-0.00261405
-0.00268104
-0.00274742
-0.00281273
-0.00287732
-0.00294159
-0.00300473
-0.00306712
-0.00312882
-0.00318945
-0.00324987
-0.00330819
-0.00336646
-0.00342362
-0.00347965
-0.00353395
-0.00358612
-0.00363709
-0.00368426
-0.00372701
-0.00376603
-0.00380328
-0.0038293
4.88566e-05
8.52408e-05
0.000138644
0.000195074
0.000250857
0.000306089
0.000361297
0.000416781
0.000472732
0.000529338
0.000586704
0.000644848
0.000703691
0.000763109
0.000822872
0.000882666
0.000942165
0.00100098
0.00105874
0.00111511
0.00116982
0.00122269
0.00127369
0.00132281
0.00137013
0.00141573
0.00145971
0.00150221
0.00154331
0.00158313
0.00162175
0.00165927
0.00169567
0.00173103
0.00176538
0.0017987
0.00183098
0.00186222
0.00189241
0.00192151
0.00194953
0.00197647
0.00200231
0.00202706
0.00205071
0.00207329
0.00209478
0.00211518
0.00213453
0.0021528
0.00217
0.00218614
0.0022012
0.0022152
0.00222811
0.00223997
0.00225076
0.00226049
0.00226913
0.00227667
0.00228309
0.00228838
0.00229251
0.00229547
0.00229724
0.00229779
0.00229708
0.0022951
0.00229181
0.00228719
0.00228123
0.00227383
0.00226504
0.00225479
0.00224304
0.00222971
0.00221486
0.00219842
0.00218036
0.00216067
0.00213929
0.00211628
0.00209155
0.00206511
0.00203692
0.00200702
0.00197538
0.00194201
0.00190696
0.00187026
0.00183175
0.00179145
0.00174928
0.00170541
0.0016598
0.00161247
0.00156346
0.00151276
0.00146048
0.00140651
0.00135102
0.00129396
0.00123539
0.00117533
0.00111388
0.00105109
0.000987022
0.000921716
0.00085518
0.000787489
0.000718748
0.000648943
0.000578151
0.000506393
0.000433716
0.000360311
0.000286148
0.000211207
0.000135694
5.95361e-05
-1.71874e-05
-9.44367e-05
-0.000172141
-0.000250221
-0.00032858
-0.000407256
-0.000485988
-0.000564936
-0.000643916
-0.000722982
-0.000802013
-0.00088095
-0.000959729
-0.00103844
-0.00111687
-0.00119511
-0.00127303
-0.0013506
-0.00142781
-0.0015047
-0.00158125
-0.00165738
-0.00173305
-0.0018081
-0.00188267
-0.00195679
-0.00203023
-0.00210305
-0.00217536
-0.00224704
-0.00231799
-0.00238821
-0.00245796
-0.00252699
-0.00259536
-0.00266293
-0.00272976
-0.00279593
-0.00286146
-0.00292632
-0.00299028
-0.00305351
-0.0031161
-0.00317797
-0.00323907
-0.00329944
-0.00335884
-0.00341778
-0.00347551
-0.0035324
-0.00358841
-0.00364328
-0.00369668
-0.00374827
-0.00379811
-0.00384541
-0.00389015
-0.00393132
-0.00397351
-0.00400861
5.79976e-05
0.000102632
0.000163168
0.000226225
0.000287176
0.000346038
0.000403322
0.000459397
0.000514534
0.000568949
0.000622778
0.000676086
0.000728868
0.000781074
0.000832571
0.00088321
0.000932837
0.000981263
0.00102831
0.00107387
0.00111786
0.00116028
0.00120119
0.00124064
0.00127875
0.00131559
0.00135131
0.00138599
0.00141968
0.00145247
0.00148439
0.00151551
0.00154579
0.00157527
0.00160399
0.00163188
0.00165892
0.00168512
0.00171045
0.00173489
0.00175843
0.00178104
0.00180271
0.00182347
0.00184326
0.00186212
0.00188002
0.00189697
0.00191298
0.00192803
0.00194212
0.00195524
0.0019674
0.00197858
0.00198879
0.00199801
0.00200626
0.00201351
0.00201973
0.00202493
0.00202909
0.00203219
0.00203419
0.0020351
0.00203487
0.0020335
0.00203091
0.00202714
0.00202212
0.00201585
0.00200828
0.00199937
0.00198909
0.00197744
0.00196436
0.00194981
0.0019338
0.00191624
0.00189713
0.00187649
0.00185424
0.0018304
0.00180492
0.00177787
0.00174911
0.00171871
0.00168665
0.00165297
0.00161767
0.00158074
0.00154212
0.00150181
0.00145974
0.00141605
0.00137065
0.00132362
0.00127505
0.00122484
0.00117311
0.00111982
0.00106505
0.0010088
0.000951089
0.000892026
0.000831707
0.000770014
0.000707199
0.000643186
0.000578004
0.000511721
0.000444455
0.000376111
0.000306894
0.000236754
0.000165782
9.41115e-05
2.17901e-05
-5.12747e-05
-0.000124945
-0.000199221
-0.000273966
-0.000349229
-0.000424858
-0.000500882
-0.000577088
-0.000653674
-0.000730211
-0.000807009
-0.000883762
-0.000960691
-0.00103747
-0.00111422
-0.00119069
-0.00126716
-0.00134333
-0.00141931
-0.00149502
-0.0015704
-0.00164536
-0.0017201
-0.00179443
-0.00186837
-0.00194184
-0.00201478
-0.0020872
-0.00215913
-0.00223049
-0.00230124
-0.00237146
-0.002441
-0.00250994
-0.00257817
-0.00264596
-0.00271294
-0.00277937
-0.00284501
-0.0029099
-0.00297416
-0.0030378
-0.00310074
-0.00316299
-0.00322446
-0.00328526
-0.00334537
-0.00340478
-0.00346346
-0.00352133
-0.00357852
-0.00363501
-0.00369047
-0.00374497
-0.00379839
-0.00385061
-0.00390132
-0.00395026
-0.00399752
-0.00404303
-0.00408615
-0.00413165
-0.00417264
6.06462e-05
0.000110668
0.000173614
0.000238823
0.000300998
0.000360057
0.000416533
0.00047079
0.000523122
0.000573772
0.000622896
0.000670604
0.00071695
0.000761965
0.000805647
0.000847989
0.000888957
0.000928496
0.000966613
0.00100333
0.00103867
0.00107268
0.00110544
0.00113708
0.00116767
0.00119726
0.00122604
0.00125401
0.00128123
0.00130772
0.00133356
0.00135876
0.00138331
0.00140722
0.0014305
0.00145311
0.00147506
0.00149631
0.00151683
0.00153664
0.00155569
0.00157397
0.00159146
0.00160817
0.00162405
0.00163912
0.00165337
0.00166678
0.00167935
0.00169108
0.00170195
0.00171197
0.00172112
0.00172939
0.00173677
0.00174326
0.00174884
0.0017535
0.00175721
0.00175995
0.00176175
0.00176253
0.00176228
0.00176101
0.00175866
0.00175523
0.00175066
0.00174498
0.00173809
0.00173003
0.0017207
0.00171013
0.00169823
0.00168505
0.00167053
0.00165458
0.00163725
0.00161846
0.0015982
0.00157651
0.00155325
0.00152847
0.00150215
0.00147431
0.00144491
0.00141395
0.00138139
0.00134733
0.00131169
0.00127454
0.00123581
0.00119546
0.00115343
0.00110988
0.00106471
0.00101801
0.000969899
0.000920209
0.000869111
0.000816564
0.000762593
0.00070725
0.00065055
0.000592555
0.000533424
0.000473006
0.000411511
0.000348885
0.000285225
0.00022051
0.00015488
8.82562e-05
2.08435e-05
-4.74499e-05
-0.000116486
-0.000186255
-0.000256566
-0.000327539
-0.000399098
-0.00047116
-0.000543722
-0.000616743
-0.000690037
-0.000763686
-0.000837486
-0.000911656
-0.00098577
-0.00106006
-0.00113437
-0.00120876
-0.00128297
-0.0013572
-0.00143109
-0.00150497
-0.00157861
-0.00165193
-0.00172506
-0.0017979
-0.00187034
-0.00194257
-0.00201432
-0.00208569
-0.00215662
-0.00222703
-0.00229697
-0.00236639
-0.00243531
-0.00250362
-0.00257137
-0.00263854
-0.00270513
-0.00277105
-0.0028365
-0.00290104
-0.00296524
-0.00302862
-0.00309126
-0.00315331
-0.00321477
-0.00327555
-0.00333571
-0.00339508
-0.00345381
-0.00351188
-0.00356928
-0.00362601
-0.00368196
-0.00373726
-0.00379203
-0.00384585
-0.00389866
-0.00395057
-0.00400136
-0.00405094
-0.00409912
-0.00414603
-0.00419182
-0.0042362
-0.0042839
-0.00432839
5.93772e-05
0.000111263
0.000173049
0.000236923
0.000297242
0.000353859
0.000407282
0.000457882
0.000505951
0.000551727
0.000595413
0.000637154
0.000677038
0.000715193
0.000751706
0.00078665
0.000820074
0.000852006
0.000882537
0.00091175
0.000939719
0.000966538
0.000992294
0.00101704
0.00104092
0.00106397
0.00108634
0.00110804
0.00112911
0.00114959
0.00116957
0.00118904
0.00120799
0.00122642
0.00124437
0.00126177
0.00127864
0.00129494
0.00131065
0.00132579
0.00134031
0.00135421
0.00136745
0.00138003
0.0013919
0.0014031
0.0014136
0.00142336
0.00143241
0.00144072
0.00144829
0.00145509
0.00146112
0.00146636
0.0014708
0.00147442
0.00147722
0.00147914
0.00148021
0.00148038
0.00147967
0.00147798
0.00147535
0.00147175
0.00146712
0.00146146
0.00145476
0.00144699
0.00143808
0.00142805
0.00141684
0.00140444
0.00139083
0.00137597
0.00135982
0.00134233
0.00132354
0.00130339
0.00128184
0.00125894
0.00123458
0.00120881
0.00118155
0.00115283
0.00112267
0.001091
0.00105784
0.00102328
0.000987258
0.000949849
0.000910935
0.000870505
0.00082848
0.000785043
0.000740142
0.000693873
0.00064624
0.000597126
0.000546677
0.000494869
0.000441799
0.000387421
0.000331848
0.000275056
0.000217185
0.000158169
9.81566e-05
3.70813e-05
-2.49108e-05
-8.79365e-05
-0.000151769
-0.000216506
-0.000281927
-0.000348195
-0.000415098
-0.000482654
-0.000550758
-0.000619439
-0.000688635
-0.000758238
-0.000828377
-0.000898834
-0.000969607
-0.00104057
-0.00111165
-0.00118308
-0.00125449
-0.00132599
-0.00139745
-0.001469
-0.00154034
-0.00161171
-0.00168284
-0.00175381
-0.00182458
-0.00189496
-0.00196516
-0.00203512
-0.00210469
-0.00217398
-0.00224287
-0.00231137
-0.00237944
-0.00244699
-0.00251411
-0.00258075
-0.00264692
-0.0027125
-0.00277749
-0.00284199
-0.00290585
-0.00296913
-0.00303183
-0.00309372
-0.0031553
-0.00321612
-0.00327628
-0.00333579
-0.00339479
-0.0034531
-0.00351084
-0.00356789
-0.00362428
-0.00368009
-0.00373524
-0.00378978
-0.00384364
-0.00389681
-0.00394949
-0.00400132
-0.00405231
-0.00410261
-0.00415182
-0.00420006
-0.0042473
-0.00429353
-0.00433935
-0.00438443
-0.00443353
-0.00447991
5.58103e-05
0.000106022
0.000164253
0.000224225
0.000280443
0.000332695
0.000381415
0.000427008
0.000469776
0.00050996
0.000547769
0.000583337
0.000616824
0.000648438
0.000678254
0.000706364
0.000732904
0.000757951
0.000781634
0.00080405
0.000825288
0.000845429
0.000864554
0.000882769
0.00090022
0.00091696
0.00093308
0.000948637
0.000963705
0.00097829
0.000992455
0.00100623
0.00101959
0.00103254
0.00104513
0.00105731
0.00106909
0.00108039
0.00109125
0.0011017
0.00111162
0.00112104
0.00112994
0.0011383
0.00114609
0.00115334
0.00116
0.00116604
0.00117147
0.00117627
0.00118041
0.00118389
0.00118667
0.00118875
0.00119012
0.00119073
0.00119059
0.00118965
0.00118793
0.00118535
0.00118195
0.00117764
0.00117247
0.00116636
0.00115931
0.00115128
0.00114224
0.0011322
0.0011211
0.00110894
0.00109568
0.00108129
0.00106575
0.00104902
0.0010311
0.0010119
0.000991485
0.000969795
0.000946801
0.000922508
0.0008969
0.000869954
0.000841629
0.000811942
0.000780926
0.000748465
0.00071465
0.000679486
0.000643063
0.000605284
0.000566136
0.000525607
0.000483639
0.00044039
0.000395749
0.000349797
0.000302645
0.000254137
0.000204407
0.000153478
0.000101398
4.80627e-05
-6.32575e-06
-6.17915e-05
-0.000118247
-0.000175762
-0.000234196
-0.000293565
-0.000353764
-0.000414854
-0.000476651
-0.000539301
-0.000602596
-0.000666618
-0.000731215
-0.000796348
-0.00086195
-0.000928105
-0.00099469
-0.00106165
-0.00112903
-0.00119665
-0.00126462
-0.00133265
-0.0014008
-0.00146921
-0.00153755
-0.00160595
-0.00167428
-0.00174272
-0.00181091
-0.00187906
-0.00194701
-0.00201479
-0.00208233
-0.00214955
-0.00221655
-0.00228326
-0.00234956
-0.00241559
-0.00248131
-0.00254666
-0.00261155
-0.00267599
-0.00273992
-0.00280343
-0.00286647
-0.00292903
-0.00299092
-0.00305243
-0.00311328
-0.00317359
-0.0032333
-0.0032924
-0.00335102
-0.0034089
-0.00346628
-0.00352307
-0.00357934
-0.00363491
-0.00368992
-0.00374441
-0.00379819
-0.00385151
-0.00390421
-0.0039563
-0.00400782
-0.00405867
-0.00410909
-0.00415869
-0.00420764
-0.00425606
-0.00430357
-0.00435038
-0.00439638
-0.00444174
-0.00448731
-0.0045327
-0.00458248
-0.00462969
4.88315e-05
9.71662e-05
0.000149507
0.000203617
0.000254025
0.000300475
0.000343382
0.000383123
0.000419952
0.000454083
0.000485709
0.000515
0.000542158
0.00056734
0.000590623
0.000612137
0.00063205
0.000650436
0.000667424
0.000683156
0.000697716
0.000711212
0.000723777
0.000735523
0.000746591
0.000757023
0.000766878
0.000776268
0.000785271
0.000793894
0.000802195
0.000810245
0.000817966
0.000825396
0.000832581
0.000839459
0.000846071
0.000852361
0.00085832
0.000863982
0.000869245
0.00087414
0.000878633
0.000882727
0.000886362
0.000889563
0.000892292
0.000894507
0.000896216
0.000897378
0.000897977
0.000898
0.000897412
0.000896192
0.000894328
0.000891774
0.000888534
0.000884563
0.000879862
0.000874355
0.000868087
0.000860991
0.000853054
0.000844252
0.000834551
0.000823937
0.000812405
0.000799874
0.000786377
0.000771895
0.000756341
0.000739741
0.000722046
0.000703269
0.000683391
0.000662287
0.000640042
0.000616632
0.000592045
0.000566188
0.000539125
0.000510841
0.000481318
0.000450524
0.000418529
0.000385236
0.000350682
0.000314894
0.000277959
0.000239797
0.000200405
0.000159721
0.000117777
7.46488e-05
3.03058e-05
-1.5234e-05
-6.18631e-05
-0.000109684
-0.00015862
-0.000208661
-0.000259723
-0.000311876
-0.000364963
-0.000419032
-0.000473961
-0.000529812
-0.000586483
-0.000643964
-0.000702193
-0.000761186
-0.0008208
-0.000881155
-0.000942092
-0.00100364
-0.00106565
-0.00112811
-0.00119104
-0.00125442
-0.00131808
-0.0013821
-0.00144643
-0.00151095
-0.00157576
-0.00164057
-0.00170557
-0.00177061
-0.00183555
-0.00190061
-0.00196559
-0.00203055
-0.00209522
-0.00215986
-0.0022243
-0.00228861
-0.0023526
-0.00241633
-0.00247979
-0.00254295
-0.00260576
-0.00266825
-0.00273042
-0.00279229
-0.00285367
-0.00291464
-0.00297514
-0.00303523
-0.0030948
-0.00315395
-0.00321247
-0.00327067
-0.00332823
-0.00338532
-0.00344181
-0.00349772
-0.00355317
-0.00360791
-0.00366227
-0.00371608
-0.0037693
-0.00382191
-0.00387394
-0.00392559
-0.00397656
-0.00402712
-0.00407714
-0.00412655
-0.00417548
-0.0042238
-0.00427175
-0.00431896
-0.00436569
-0.00441206
-0.0044577
-0.0045029
-0.00454742
-0.0045918
-0.00463669
-0.00468193
-0.00473172
-0.00477899
4.27516e-05
8.40022e-05
0.00013025
0.000176914
0.00022028
0.000260059
0.000296502
0.000329859
0.000360309
0.000388012
0.000413203
0.000436043
0.000456678
0.000475245
0.000491869
0.00050668
0.000519816
0.000531399
0.000541598
0.000550546
0.00055833
0.000565074
0.000570973
0.000576112
0.000580609
0.000584555
0.000588062
0.000591252
0.000594106
0.000596678
0.000599038
0.000601234
0.000603231
0.000605068
0.000606779
0.000608319
0.000609682
0.000610871
0.000611877
0.000612682
0.000613228
0.00061354
0.000613561
0.000613302
0.000612694
0.000611751
0.00061044
0.000608725
0.000606579
0.000603977
0.00060089
0.000597298
0.000593167
0.000588473
0.000583188
0.000577282
0.000570752
0.000563543
0.000555638
0.000547004
0.000537657
0.000527525
0.000516587
0.000504845
0.00049226
0.00047881
0.000464493
0.000449251
0.000433108
0.000416011
0.000397936
0.00037889
0.000358847
0.000337763
0.00031565
0.000292449
0.000268224
0.000242886
0.000216455
0.000188882
0.000160239
0.000130459
9.95923e-05
6.75735e-05
3.44137e-05
1.35237e-07
-3.5257e-05
-7.17041e-05
-0.000109218
-0.000147764
-0.000187426
-0.000228232
-0.000270206
-0.000313192
-0.000357232
-0.000402324
-0.000448382
-0.000495463
-0.000543557
-0.000592586
-0.000642489
-0.000693362
-0.000745022
-0.000797543
-0.000850762
-0.000904792
-0.000959519
-0.00101493
-0.00107099
-0.00112773
-0.00118494
-0.00124278
-0.00130106
-0.00135984
-0.00141901
-0.00147853
-0.00153848
-0.00159878
-0.00165933
-0.00172013
-0.00178112
-0.00184222
-0.00190356
-0.00196486
-0.0020263
-0.00208771
-0.002149
-0.0022104
-0.00227163
-0.00233276
-0.0023937
-0.00245456
-0.00251514
-0.00257559
-0.00263573
-0.00269564
-0.00275524
-0.00281461
-0.00287359
-0.00293217
-0.00299051
-0.00304853
-0.00310609
-0.00316331
-0.00322009
-0.00327647
-0.00333234
-0.00338776
-0.00344265
-0.00349722
-0.00355118
-0.00360472
-0.00365773
-0.00371016
-0.00376223
-0.00381361
-0.00386466
-0.00391509
-0.00396505
-0.00401458
-0.00406347
-0.00411199
-0.00415988
-0.00420744
-0.00425454
-0.00430107
-0.00434726
-0.00439286
-0.0044382
-0.00448291
-0.00452726
-0.00457127
-0.00461484
-0.00465815
-0.00470118
-0.0047443
-0.00478827
-0.00483286
-0.00488218
-0.00492895
3.64343e-05
6.94276e-05
0.00010781
0.000145995
0.000181535
0.000214054
0.000243497
0.000269972
0.000293586
0.000314466
0.00033283
0.000348797
0.000362541
0.000374194
0.00038386
0.000391694
0.000397786
0.000402293
0.000405421
0.000407274
0.000408011
0.000407792
0.000406803
0.000405126
0.000402907
0.000400231
0.000397205
0.000393944
0.000390481
0.000386861
0.000383164
0.000379441
0.000375631
0.000371788
0.000367937
0.00036405