/*--------------------------------*- C++ -*----------------------------------*\
  =========                 |
  \\      /  F ield         | OpenFOAM: The Open Source CFD Toolbox
   \\    /   O peration     | Website:  https://openfoam.org
    \\  /    A nd           | Version:  8
     \\/     M anipulation  |
\*---------------------------------------------------------------------------*/
FoamFile
{
    version     2.0;
    format      ascii;
    class       volScalarField;
    location    "200";
    object      vpod_4;
}
// * * * * * * * * * * * * * * * * * * * * * * * * * * * * * * * * * * * * * //

dimensions      [0 1 -1 0 0 0 0];

internalField   nonuniform List<scalar> 
12225
(
0.00908583
0.00529432
0.00144902
-0.000179238
-0.000731504
-0.000827109
-0.000754333
-0.000642263
-0.000493241
-0.000330126
-0.000206958
-9.4375e-05
9.28879e-05
0.000325532
0.000516133
0.00122617
-0.00676333
0.00571042
-0.00251136
-0.00338324
-0.00327506
-0.00226465
-0.00159432
-0.00122135
-0.00107337
-0.00105076
-0.00104078
-0.00091459
-0.000756601
-0.000517885
-0.000148464
0.000388323
0.0018285
0.00413485
0.0088378
0.0144471
-0.000368421
-0.00248746
-0.00319947
-0.00243402
-0.00197597
-0.00169703
-0.00157527
-0.00153847
-0.00147164
-0.00126877
-0.000989577
-0.000584571
-3.01839e-05
0.000803411
0.00216176
0.00488243
0.00667708
0.0164376
0.000120294
-0.00278684
-0.004395
-0.00358883
-0.00295343
-0.00250352
-0.00224803
-0.0020983
-0.00192684
-0.00161845
-0.00117944
-0.000582158
0.0001869
0.00129528
0.00302381
0.00584885
0.00932725
0.016766
0.000368091
-0.00333
-0.00565017
-0.00465673
-0.00379585
-0.0031852
-0.00280832
-0.00255889
-0.0022977
-0.0018881
-0.00131363
-0.000560131
0.000400091
0.00174148
0.00370258
0.00668445
0.010563
0.0170677
0.000604009
-0.00374682
-0.00679378
-0.0057135
-0.00467842
-0.00392173
-0.00341909
-0.00306307
-0.00270068
-0.00217731
-0.00146963
-0.000566517
0.000577279
0.00212373
0.00426853
0.00731794
0.0112176
0.0168523
0.000888121
-0.00398367
-0.0078993
-0.00682785
-0.00564448
-0.00473485
-0.00409382
-0.00361832
-0.00313646
-0.00248319
-0.00163702
-0.000583977
0.00073603
0.00245872
0.00473177
0.00775662
0.0114795
0.0164253
0.00119325
-0.00411551
-0.0089065
-0.00794229
-0.00665255
-0.00560004
-0.00482136
-0.0042152
-0.00360291
-0.00281434
-0.00182813
-0.000620078
0.000867769
0.00272829
0.00507386
0.0080196
0.011493
0.0158838
0.00153202
-0.00414399
-0.00972239
-0.00898322
-0.00765666
-0.00649311
-0.00558784
-0.00485105
-0.004112
-0.00318746
-0.0020524
-0.000688382
0.000946718
0.00291065
0.00528955
0.00811878
0.0113215
0.0152293
0.00192671
-0.00388967
-0.0103096
-0.00992892
-0.008642
-0.00740606
-0.00639391
-0.00553406
-0.004662
-0.00358867
-0.00229783
-0.000779127
0.000988577
0.00304463
0.005443
0.00814109
0.0110802
0.0145976
0.00240977
-0.00359345
-0.0109395
-0.0108975
-0.00966131
-0.00836462
-0.00724684
-0.00625344
-0.00523069
-0.00400138
-0.00256464
-0.000912507
0.000959716
0.00307567
0.00543706
0.00795885
0.0105981
0.0137751
0.0026288
-0.00378516
-0.0114608
-0.0115772
-0.010349
-0.00900363
-0.0078056
-0.00671562
-0.00559278
-0.00424714
-0.00269851
-0.000947272
0.00099604
0.00313306
0.0054416
0.00782475
0.0102295
0.013259
0.00305064
-0.00373426
-0.0116972
-0.0117297
-0.0106522
-0.00940952
-0.00821446
-0.00707315
-0.00586195
-0.00441248
-0.00275991
-0.000919498
0.00109119
0.00325259
0.00552333
0.00781563
0.0100852
0.0131382
0.00347048
-0.00394423
-0.0124598
-0.0122254
-0.0110205
-0.0096883
-0.00837758
-0.00714184
-0.00585672
-0.00434849
-0.0026622
-0.000798468
0.00120329
0.00330066
0.00544601
0.00757906
0.00966734
0.0126129
0.0038354
-0.00309277
-0.0123763
-0.0123652
-0.0111278
-0.00971061
-0.0082847
-0.00695839
-0.00558344
-0.00403468
-0.0023335
-0.00048344
0.00145555
0.00343603
0.00542054
0.00733428
0.00918471
0.0117633
0.00387599
-0.00163745
-0.0110055
-0.011533
-0.0105533
-0.00922362
-0.00779166
-0.00642915
-0.00500318
-0.00344403
-0.00176693
-6.9565e-06
0.00177894
0.00355492
0.00526689
0.00686031
0.00837236
0.0105347
0.00341267
-0.000102521
-0.00828085
-0.00923975
-0.00867766
-0.00764592
-0.00641872
-0.00517681
-0.00384214
-0.0024101
-0.00091015
0.00061287
0.00210634
0.00354123
0.00487613
0.00608078
0.00721165
0.00886465
0.0022554
0.000983115
-0.00446764
-0.00540291
-0.00520912
-0.00457909
-0.00372395
-0.00278987
-0.00176974
-0.00070082
0.000381437
0.0014483
0.00247137
0.00341693
0.00426306
0.00498915
0.00567398
0.00674341
0.000341173
0.000918987
0.000185551
-0.000147318
-0.000210972
-5.75703e-05
0.000256425
0.000650938
0.00108686
0.00154613
0.00200447
0.00244144
0.00283034
0.00315905
0.00341835
0.00359554
0.00376327
0.00409628
-0.00121812
0.000166916
0.00327033
0.00361392
0.00353325
0.00342304
0.00336045
0.00332677
0.00331676
0.0033076
0.00329332
0.00325169
0.00317473
0.00304941
0.00287834
0.00264676
0.00242625
0.00217638
-0.00194233
0.000317027
0.00516619
0.00571872
0.00556531
0.00529775
0.00503358
0.00477538
0.00452769
0.00427018
0.00399996
0.00369778
0.00336494
0.0029872
0.00257836
0.0021315
0.00169159
0.00114215
-0.00230025
0.000793033
0.00654045
0.00700846
0.00669422
0.00627833
0.00586515
0.0054684
0.00507596
0.00466913
0.00423417
0.00377272
0.0032779
0.00275683
0.00220458
0.00164147
0.0010823
0.000369029
-0.00234713
0.00147325
0.00741508
0.00756445
0.00703878
0.00649444
0.00599666
0.00552724
0.00507582
0.00459994
0.00410293
0.00358086
0.00303484
0.00246961
0.00187705
0.00128072
0.000696635
-0.000129173
-0.00213804
0.00215164
0.00768184
0.00739758
0.0066814
0.00606711
0.00554954
0.0050843
0.00463753
0.00416649
0.00368444
0.00318605
0.00267384
0.00214316
0.00159582
0.00103213
0.000477314
-0.000371185
-0.00175633
0.00261632
0.00729671
0.00661441
0.00580972
0.0052131
0.00475019
0.00434361
0.0039598
0.00356069
0.00314962
0.00272307
0.00228918
0.00184373
0.00138623
0.000916066
0.000458555
-0.000304233
-0.00129445
0.00273952
0.00640664
0.00552668
0.00477411
0.00426681
0.00389497
0.0035641
0.00323935
0.00292274
0.00259841
0.00225076
0.0019124
0.00156284
0.00120025
0.000845615
0.000496942
-0.000175359
-0.000835447
0.00250385
0.00512014
0.00431892
0.00378806
0.00343392
0.00315922
0.0028986
0.00263222
0.00239258
0.00212842
0.00184278
0.00159241
0.00132047
0.00104013
0.000789405
0.000527543
1.87601e-06
-0.00025742
0.00228247
0.00375031
0.00294367
0.00259327
0.00238977
0.00223199
0.00207427
0.00190847
0.00175955
0.00159313
0.00140068
0.00122956
0.00104839
0.000860643
0.000715765
0.000563977
0.000119333
0.00188685
0.00335878
0.00384543
0.00279742
0.00220223
0.0018736
0.00167641
0.00153176
0.0014498
0.00135597
0.00126954
0.00119312
0.00108648
0.000981861
0.000882223
0.000798069
0.000718767
0.00040474
-0.00747322
-0.00425778
-0.00102823
0.000301172
0.000850246
0.00100298
0.000946548
0.000818404
0.000700833
0.000544815
0.000424948
0.000331365
0.000214883
0.000148339
0.000124323
0.000128481
0.000155869
4.49609e-06
0.00277978
0.00315257
0.00355345
0.00357327
0.00321561
0.00277078
0.00247389
0.0021151
0.00185262
0.00163071
0.00142391
0.0012008
0.00100747
0.000745866
0.000357022
-0.000135471
-0.00065915
-0.00113454
-0.00155447
-0.00187837
-0.00207621
-0.00197334
-0.00174173
-0.00152552
-0.00137302
-0.00127311
-0.00111959
-0.000979324
-0.000871705
-0.000759522
-0.000591161
-0.000446983
-0.000329563
-0.00017793
-0.000103629
-2.31817e-05
1.2664e-05
2.59958e-05
2.05299e-06
-2.46867e-06
-1.42912e-05
-1.35931e-05
-2.47642e-05
-1.31142e-05
-9.73291e-06
1.03806e-05
2.30868e-05
6.02824e-05
8.6576e-05
0.000127103
0.000161638
0.00021526
0.000253477
0.000306486
0.000345841
0.000389449
0.000423342
0.000470456
0.000513138
0.000560705
0.000594741
0.000638851
0.000674332
0.000712783
0.000738608
0.000768354
0.000790596
0.000814288
0.000832396
0.000852146
0.000863053
0.00086888
0.000872877
0.00088015
0.000877768
0.000871089
0.000858518
0.0008452
0.000824807
0.000802846
0.000775777
0.000741581
0.000707928
0.000661027
0.000617319
0.000575263
0.000529413
0.000474406
0.00041166
0.000352881
0.000289145
0.000219632
0.000143233
6.44493e-05
-5.2858e-06
-8.70503e-05
-0.000165098
-0.000243255
-0.000324673
-0.000402192
-0.00048575
-0.000569606
-0.000639796
-0.000716693
-0.000802952
-0.000863155
-0.0009265
-0.00099634
-0.00104876
-0.00111414
-0.00117663
-0.00121726
-0.00125662
-0.00130403
-0.00134039
-0.00137009
-0.00139863
-0.00145721
-0.00150584
-0.00149785
-0.00148612
-0.0014719
-0.00147109
-0.0014552
-0.00136214
-0.00133126
-0.00129705
-0.00116593
-0.00113016
-0.00111316
-0.00103457
-0.000920019
-0.000836995
-0.000779444
-0.00070289
-0.000602643
-0.000447474
-0.000340461
-0.000258814
-0.000130155
-9.70734e-06
6.31621e-05
0.000124684
0.000234489
0.000410892
0.000548374
0.000543773
0.000573022
0.000728342
0.000829094
0.000884434
0.000983599
0.00103144
0.0010158
0.00103039
0.00101528
0.0010361
0.00111227
0.00111261
0.00108054
0.00110444
0.00111023
0.00109025
0.00107586
0.00103961
0.000980573
0.000964894
0.000983208
0.000932718
0.000872633
0.000875731
0.000842211
0.000811942
0.000767385
0.000721125
0.000791194
0.000747412
0.000670018
0.000706604
0.000350736
0.00438721
0.00409256
0.00439918
0.0044021
0.00396644
0.00321892
0.00234339
0.00144265
0.000576471
-0.000219481
-0.00091098
-0.00154295
-0.00215418
-0.0027536
-0.00334827
-0.00391152
-0.00438645
-0.0047238
-0.00486708
-0.0048083
-0.0045405
-0.00408723
-0.00356052
-0.00300874
-0.00245428
-0.00191317
-0.00141447
-0.000969872
-0.000607299
-0.000319188
-0.000106715
4.39558e-05
0.000118086
0.000147388
0.000129123
0.000100572
5.82158e-05
1.57724e-05
-3.22024e-05
-6.35642e-05
-7.69451e-05
-7.64246e-05
-7.64943e-05
-5.25765e-05
-1.25991e-05
4.51095e-05
9.81171e-05
0.000169108
0.000241007
0.000327537
0.000415819
0.000517141
0.000611715
0.000716382
0.000803715
0.000877656
0.000941465
0.0010158
0.00109128
0.00116584
0.00122795
0.0012861
0.00133242
0.00137429
0.00140946
0.00145047
0.00147756
0.00149482
0.00149903
0.00150395
0.00149986
0.00148065
0.00144378
0.00140137
0.0013652
0.00131988
0.00126045
0.00118816
0.00110308
0.00102175
0.000925372
0.000824784
0.000717287
0.000595209
0.000462416
0.000333503
0.000209911
6.37488e-05
-7.73901e-05
-0.000218788
-0.000365828
-0.000514949
-0.000670507
-0.000815517
-0.000964521
-0.00111615
-0.00125929
-0.00139311
-0.00153475
-0.00168194
-0.00181375
-0.00192687
-0.00202966
-0.00212897
-0.00222009
-0.00232274
-0.00239217
-0.00244434
-0.00250742
-0.00254984
-0.00258053
-0.00261118
-0.00262119
-0.00260856
-0.00260454
-0.00258066
-0.00253535
-0.00250466
-0.00244182
-0.00234535
-0.00225589
-0.0021782
-0.00210715
-0.00203855
-0.00192293
-0.00177648
-0.00163028
-0.00150145
-0.00134959
-0.0011866
-0.00102613
-0.000878087
-0.000709736
-0.000534762
-0.000369823
-0.000206446
-7.53732e-05
5.14487e-05
0.000194535
0.00032427
0.000469672
0.000617926
0.000761204
0.000905221
0.00103408
0.0011807
0.00132032
0.00139709
0.00146229
0.00158223
0.00164071
0.00164619
0.00170183
0.0017973
0.00183553
0.0018605
0.00186215
0.00183477
0.00187802
0.0018881
0.00185817
0.00180519
0.00178765
0.0017777
0.00174615
0.00174186
0.00164369
0.00161805
0.00163173
0.00152835
0.0014219
0.0014342
0.00141696
0.00133908
0.00131286
0.00127949
0.00122548
0.00117686
0.00102523
0.000366106
0.00727633
0.00657544
0.00668591
0.00607102
0.00473903
0.00306983
0.00133653
-0.000319594
-0.00181174
-0.00307109
-0.00410244
-0.00495431
-0.00563607
-0.0061477
-0.00650036
-0.00670054
-0.00671848
-0.00654636
-0.00620136
-0.00570015
-0.00504607
-0.00428783
-0.00351568
-0.00276336
-0.00206524
-0.0014524
-0.000946565
-0.000545576
-0.000260477
-7.10309e-05
4.15257e-05
8.69522e-05
6.90508e-05
2.11538e-05
-5.30069e-05
-0.000127673
-0.000197298
-0.000253025
-0.000295469
-0.000317598
-0.000316505
-0.000300623
-0.00026209
-0.000195077
-0.000109042
-7.66366e-06
0.000110621
0.000245667
0.000381182
0.0005249
0.000672099
0.000820832
0.000964977
0.00110923
0.00124785
0.00138499
0.00151658
0.0016408
0.00175321
0.00186065
0.00195808
0.00204382
0.0021188
0.00218402
0.00224155
0.00228929
0.00231966
0.00233652
0.00234117
0.00233885
0.0023187
0.00228278
0.00222979
0.00216206
0.00208452
0.00199203
0.00188517
0.00175964
0.00162054
0.00146741
0.00129869
0.00112731
0.000944771
0.000751202
0.000547348
0.000337137
0.000120174
-0.000114055
-0.000347324
-0.000585658
-0.000830802
-0.00107132
-0.00130376
-0.00153963
-0.00178274
-0.00201144
-0.00223907
-0.00246075
-0.00267595
-0.00288404
-0.00307817
-0.00325866
-0.00342756
-0.00357622
-0.00370684
-0.00384452
-0.00395053
-0.00403012
-0.00411275
-0.0041614
-0.00418487
-0.00421326
-0.00421854
-0.00417651
-0.00412043
-0.00405075
-0.00396774
-0.00388311
-0.00375275
-0.00360423
-0.00346162
-0.00331328
-0.00316984
-0.0030069
-0.00280119
-0.00255243
-0.0023138
-0.00211731
-0.00189952
-0.00164742
-0.00136866
-0.00111347
-0.000867492
-0.00062575
-0.000375007
-0.000115016
0.000102694
0.000305001
0.000503974
0.000685526
0.000881188
0.00110483
0.00135304
0.00154963
0.00168301
0.00188908
0.00207859
0.00216404
0.00223752
0.00240815
0.00254635
0.0025563
0.00258228
0.00269832
0.0027621
0.0028
0.00280612
0.00275337
0.00279692
0.00281759
0.00280055
0.00276213
0.00271752
0.00268055
0.00264395
0.0026296
0.00250222
0.00243919
0.00245156
0.00233037
0.00219004
0.00219952
0.00216537
0.00208123
0.00202597
0.00186281
0.00178162
0.00169355
0.00140851
0.000824762
0.0086374
0.00768486
0.00717472
0.00582222
0.00388884
0.00176712
-0.000321458
-0.00222127
-0.00384223
-0.00514663
-0.00614781
-0.00687295
-0.00733046
-0.00755062
-0.00757339
-0.00740568
-0.0070498
-0.00654602
-0.00592996
-0.00522511
-0.00446546
-0.00370583
-0.00299902
-0.00236548
-0.001823
-0.00138622
-0.00105765
-0.000835561
-0.000712429
-0.000660083
-0.000664358
-0.00071859
-0.000798537
-0.000880855
-0.000959134
-0.00102238
-0.00106601
-0.00108429
-0.00107679
-0.00104068
-0.000979677
-0.000895275
-0.000777104
-0.000634832
-0.000476794
-0.000301029
-0.000105395
0.000102286
0.000315192
0.000534755
0.000752339
0.000966707
0.00117675
0.0013811
0.0015841
0.00179028
0.00199221
0.00217922
0.00234273
0.002496
0.00263841
0.0027654
0.00287778
0.00297684
0.00306144
0.00312261
0.0031662
0.00319447
0.00320459
0.00319538
0.00316316
0.00311779
0.00305671
0.00296996
0.00285357
0.00271885
0.00256675
0.00239424
0.00220464
0.00198647
0.00175059
0.00150589
0.00124635
0.000978483
0.000700772
0.000404812
9.56804e-05
-0.000219027
-0.000546333
-0.000884313
-0.00122639
-0.00156393
-0.00188472
-0.00221276
-0.0025504
-0.00286492
-0.00318085
-0.00349319
-0.00378526
-0.00405601
-0.00431285
-0.0045631
-0.00480234
-0.00500917
-0.00518469
-0.00535402
-0.00550153
-0.00561678
-0.00571995
-0.00578444
-0.00580993
-0.00583081
-0.00583452
-0.00578502
-0.00569188
-0.00558194
-0.00545684
-0.00531234
-0.00513087
-0.00494421
-0.0047459
-0.0045168
-0.00428021
-0.00401495
-0.00373948
-0.00341583
-0.00308174
-0.0027871
-0.00247633
-0.00213352
-0.00174844
-0.00138045
-0.00103275
-0.000700145
-0.000355786
-3.74675e-07
0.000308937
0.000605409
0.000887288
0.00114478
0.00139869
0.001688
0.00202887
0.00230158
0.00246979
0.00271142
0.00296648
0.0031211
0.00322085
0.00339819
0.00359414
0.00364754
0.00365858
0.00376805
0.00385425
0.00391424
0.00393382
0.00386352
0.00388161
0.00389076
0.00386887
0.00383959
0.00377146
0.00368813
0.00363515
0.00359901
0.00346396
0.00333789
0.00330598
0.00320669
0.00305221
0.00301599
0.00294772
0.002878
0.00278344
0.00248669
0.00236075
0.0022271
0.00184155
0.00137269
0.00867356
0.0075057
0.00652182
0.00480175
0.00266299
0.000466619
-0.00160823
-0.00342631
-0.00490153
-0.00602515
-0.00681756
-0.00730658
-0.00752028
-0.00750542
-0.0072941
-0.00691396
-0.00641267
-0.00582933
-0.005199
-0.00456393
-0.00394949
-0.00338425
-0.00289037
-0.00247615
-0.00215152
-0.00191449
-0.00176554
-0.00169972
-0.00169288
-0.00172745
-0.00179188
-0.00187773
-0.00195641
-0.00201736
-0.00206185
-0.00208454
-0.00208024
-0.00204285
-0.00196797
-0.00185633
-0.00171615
-0.00154866
-0.00135241
-0.00113342
-0.000891695
-0.000632221
-0.000357245
-7.0658e-05
0.00022255
0.000520623
0.000816693
0.0011074
0.00139286
0.00167239
0.00194629
0.00221397
0.00247121
0.00271256
0.00293458
0.00314027
0.00332879
0.00349712
0.0036458
0.00377443
0.00388232
0.00396473
0.00402618
0.00406658
0.00408117
0.00406813
0.00402842
0.00396699
0.00388353
0.00377303
0.00363024
0.00346134
0.00326495
0.0030432
0.00279967
0.00252658
0.00222907
0.0019138
0.0015838
0.00123854
0.000877079
0.000497167
0.000103472
-0.000298748
-0.000718831
-0.00114881
-0.00157931
-0.00200787
-0.00242753
-0.00285145
-0.00327702
-0.003682
-0.00408095
-0.00447533
-0.00484674
-0.005194
-0.00552305
-0.00583745
-0.00613045
-0.00639016
-0.00662152
-0.00682963
-0.00700884
-0.00715615
-0.00727488
-0.00735522
-0.00739473
-0.00740929
-0.00739499
-0.00733364
-0.00722077
-0.00707838
-0.00691112
-0.00671865
-0.00649479
-0.00625173
-0.00598644
-0.00568737
-0.0053648
-0.00501123
-0.00464741
-0.00424886
-0.00383093
-0.00342751
-0.00301562
-0.00257812
-0.00210649
-0.0016392
-0.00118802
-0.000755597
-0.000315565
0.000122233
0.000525323
0.000916038
0.00128914
0.00163982
0.00197899
0.00233533
0.0027192
0.00305152
0.00330728
0.00358214
0.00386124
0.00407968
0.00424279
0.00442598
0.00462177
0.00472833
0.00477985
0.00487345
0.00495956
0.00502457
0.00504538
0.00499854
0.00499102
0.0049754
0.00493608
0.0048973
0.00481819
0.00471081
0.00462923
0.00454849
0.00441895
0.00425854
0.00415839
0.00406931
0.00392826
0.00382697
0.00371439
0.00362725
0.00347945
0.00315693
0.00297334
0.00277248
0.00237143
0.00194705
0.00809093
0.0066403
0.00546225
0.0037348
0.00173775
-0.000267904
-0.00211673
-0.00369019
-0.00492663
-0.00582793
-0.00641693
-0.00672317
-0.00678403
-0.00665944
-0.00638881
-0.00601206
-0.00557319
-0.0051049
-0.00463727
-0.00420057
-0.00381328
-0.00348998
-0.00323484
-0.00304922
-0.0029291
-0.00286401
-0.00286378
-0.00291198
-0.00298689
-0.00307368
-0.00316184
-0.00324329
-0.00329967
-0.00332776
-0.00332865
-0.00329171
-0.00321501
-0.00310111
-0.00294518
-0.00275173
-0.00252638
-0.00226989
-0.00198394
-0.00167541
-0.00134469
-0.000996737
-0.000635379
-0.000264276
0.000111757
0.000490614
0.000867349
0.00123859
0.00160239
0.00195754
0.00230221
0.00263425
0.0029505
0.00324824
0.00352626
0.00378394
0.00401906
0.00422972
0.00441566
0.00457529
0.00470812
0.00481347
0.00489168
0.00494027
0.00495809
0.00494355
0.00489903
0.00482522
0.00472092
0.00458422
0.00441278
0.00420806
0.00397082
0.00370467
0.00341051
0.00308334
0.00272425
0.00234094
0.0019388
0.00151841
0.00107718
0.000613675
0.000135413
-0.000356419
-0.00086309
-0.00137835
-0.00189916
-0.00242111
-0.00293843
-0.00345399
-0.0039622
-0.00445364
-0.00493688
-0.00541044
-0.00585822
-0.00628102
-0.00668195
-0.00705968
-0.00740821
-0.00772059
-0.00799989
-0.00824908
-0.0084611
-0.00863367
-0.00876656
-0.00885943
-0.00890765
-0.00891677
-0.00888539
-0.00880706
-0.00867925
-0.00850993
-0.0083003
-0.008061
-0.00778725
-0.00748551
-0.00715486
-0.00678634
-0.00638334
-0.00595095
-0.00549854
-0.00501967
-0.00451593
-0.0040127
-0.00350132
-0.0029671
-0.00241157
-0.00185531
-0.00130576
-0.000775249
-0.000241357
0.000283963
0.000777631
0.00125567
0.00171712
0.00215685
0.00258066
0.00300237
0.00342654
0.00381195
0.0041446
0.00446154
0.00476586
0.00503001
0.00524377
0.00544653
0.00564337
0.00578594
0.00588143
0.00597219
0.00604936
0.00611105
0.00612964
0.00609847
0.00607567
0.00604127
0.00598551
0.00592486
0.00583032
0.00570919
0.00559766
0.00548275
0.00534092
0.00516658
0.00502001
0.00490239
0.00474951
0.00460338
0.00445557
0.00431808
0.00412856
0.00382203
0.00358051
0.00332151
0.00292379
0.00250193
0.00748664
0.00592509
0.004737
0.00320624
0.00148624
-0.000237265
-0.00181358
-0.00314418
-0.0041719
-0.00490455
-0.00537396
-0.005615
-0.00566082
-0.00556974
-0.00538599
-0.00515288
-0.00489798
-0.00463336
-0.0043929
-0.00420648
-0.00407432
-0.00399349
-0.00396171
-0.00397967
-0.00403959
-0.00412288
-0.0042451
-0.0043832
-0.00451948
-0.00463383
-0.00472666
-0.00479061
-0.00481429
-0.00479331
-0.00472904
-0.00461731
-0.00446176
-0.00426231
-0.00401422
-0.00372911
-0.00340922
-0.00305581
-0.00267322
-0.00226853
-0.00184093
-0.00139713
-0.000944068
-0.000483423
-1.89697e-05
0.000445839
0.000906013
0.00135843
0.00180082
0.00223131
0.00264701
0.00304542
0.00342312
0.00378026
0.00411527
0.00442489
0.00470531
0.00495788
0.0051817
0.00537276
0.00553194
0.00566021
0.00575479
0.00581298
0.00583611
0.00582286
0.0057742
0.00569028
0.00556762
0.00540447
0.00520244
0.00496418
0.00469059
0.00438179
0.00403704
0.00365584
0.00324084
0.00279463
0.00231955
0.00182178
0.00130065
0.000754803
0.000192072
-0.000384367
-0.000973441
-0.00157459
-0.0021857
-0.00280024
-0.00340995
-0.00401029
-0.00460006
-0.00517858
-0.00574741
-0.00629963
-0.00682502
-0.0073199
-0.00778853
-0.00822662
-0.00863133
-0.00899889
-0.00932444
-0.00961083
-0.00985613
-0.0100518
-0.0102008
-0.0103033
-0.0103544
-0.0103576
-0.0103144
-0.0102187
-0.0100696
-0.00987402
-0.00962971
-0.00934108
-0.00901193
-0.0086518
-0.00825716
-0.0078212
-0.00734335
-0.00682913
-0.00629153
-0.00573022
-0.00514241
-0.00454344
-0.00393473
-0.00330765
-0.00266771
-0.00202899
-0.00138846
-0.000758674
-0.000134156
0.000479855
0.00106332
0.00162718
0.00217565
0.00269606
0.00319178
0.00367572
0.00414831
0.00458571
0.00497673
0.0053377
0.00567395
0.00597585
0.00622842
0.00645379
0.00666281
0.00683168
0.00695284
0.00704704
0.00712104
0.0071737
0.00718801
0.00716346
0.00713025
0.0070828
0.0070096
0.00692409
0.00681028
0.00667187
0.00653433
0.00638945
0.00622846
0.0060456
0.00586952
0.00570886
0.00552483
0.00534224
0.00516257
0.00497626
0.00475514
0.00445307
0.00416588
0.0038642
0.0034718
0.00304197
0.00712747
0.00578541
0.00474919
0.00346142
0.00204795
0.000584882
-0.000779973
-0.00194891
-0.00287381
-0.00354606
-0.00400424
-0.00429016
-0.00442306
-0.00447163
-0.00447575
-0.00446274
-0.00445417
-0.00444863
-0.00447122
-0.00454002
-0.00465576
-0.00481461
-0.00500387
-0.00520348
-0.00541765
-0.00563555
-0.00585936
-0.00606507
-0.0062366
-0.00636107
-0.00644633
-0.00648186
-0.00645991
-0.00637775
-0.00624285
-0.00605143
-0.00580795
-0.00551014
-0.00516029
-0.00477514
-0.00435445
-0.00389839
-0.00341249
-0.00290378
-0.00237167
-0.00182736
-0.00127692
-0.000721012
-0.000165004
0.000387484
0.000932561
0.00146702
0.00198872
0.00249448
0.00298089
0.00344588
0.00388707
0.00430516
0.00469529
0.00505475
0.00538197
0.00567859
0.0059397
0.00616377
0.00635204
0.0065029
0.00661412
0.00668585
0.00671751
0.006707
0.00665486
0.00656016
0.0064204
0.00623564
0.00600731
0.00573787
0.00542765
0.00507481
0.00467868
0.00424552
0.00377747
0.00327133
0.00272979
0.00215831
0.00155781
0.000931906
0.000286358
-0.000372423
-0.00104581
-0.00173566
-0.00243297
-0.00313201
-0.00382739
-0.00451482
-0.00519362
-0.0058593
-0.00650832
-0.00713646
-0.00773652
-0.00830239
-0.00883937
-0.00933945
-0.00979767
-0.0102154
-0.0105877
-0.0109121
-0.0111879
-0.0114075
-0.0115725
-0.0116816
-0.0117371
-0.0117394
-0.0116853
-0.0115704
-0.011396
-0.0111701
-0.010893
-0.0105596
-0.0101792
-0.009758
-0.00929567
-0.00879464
-0.00824883
-0.00765812
-0.00703599
-0.00638632
-0.00571577
-0.00502777
-0.00432671
-0.00361022
-0.00288152
-0.00215647
-0.00143155
-0.000709565
-5.88179e-07
0.000696839
0.00137261
0.00202483
0.00265559
0.00324921
0.0038086
0.00435194
0.00487457
0.00536209
0.00580589
0.00621164
0.00658067
0.00691239
0.00719842
0.00744756
0.007672
0.00785643
0.00798921
0.00809167
0.00817193
0.00821441
0.00821961
0.00819691
0.00815587
0.00809679
0.00800535
0.0078946
0.00776141
0.00760135
0.00744022
0.00726791
0.00708296
0.00688739
0.00668726
0.00648738
0.00626959
0.00605171
0.00583554
0.00561231
0.00536363
0.00504888
0.00472543
0.0043936
0.00400473
0.00356725
0.00746581
0.00660678
0.00575189
0.00466726
0.00344049
0.00209074
0.000816867
-0.000279125
-0.00118668
-0.00189612
-0.00244101
-0.00283957
-0.00312791
-0.00339941
-0.00365811
-0.0038991
-0.00415897
-0.00443853
-0.00475501
-0.00510966
-0.00548975
-0.00588085
-0.00626366
-0.00663412
-0.00699943
-0.00734076
-0.00764759
-0.0079058
-0.00810918
-0.00824313
-0.00830641
-0.00830351
-0.00822581
-0.00807282
-0.00785462
-0.00757106
-0.00722721
-0.00682044
-0.00636427
-0.00587503
-0.00534275
-0.0047742
-0.0041767
-0.00355798
-0.00291997
-0.00227367
-0.00162379
-0.0009713
-0.000322686
0.000319237
0.000950761
0.00156831
0.00216884
0.00274882
0.00330534
0.00383765
0.00434342
0.0048206
0.00526373
0.0056743
0.00605001
0.00638903
0.00668715
0.0069463
0.00716512
0.00734105
0.00747105
0.00755662
0.00759748
0.00758991
0.00753415
0.00743023
0.00727862
0.00707854
0.00682748
0.00652732
0.00618054
0.00578627
0.00534183
0.00485554
0.00433253
0.00376973
0.00316661
0.00252633
0.00185361
0.00115251
0.000426166
-0.000317401
-0.00107645
-0.00185048
-0.00263199
-0.00341498
-0.00419474
-0.00496891
-0.00573489
-0.00648539
-0.00721174
-0.00791402
-0.00858766
-0.00922674
-0.00982896
-0.0103888
-0.0109016
-0.0113677
-0.0117822
-0.0121449
-0.0124503
-0.0126952
-0.0128769
-0.0129951
-0.0130541
-0.0130535
-0.0129866
-0.0128528
-0.0126557
-0.0124024
-0.01209
-0.0117124
-0.011282
-0.0108022
-0.010274
-0.00970685
-0.00909443
-0.00843617
-0.0077332
-0.00699535
-0.0062439
-0.00547502
-0.00468245
-0.00387553
-0.00306018
-0.00224653
-0.00143706
-0.000632195
0.000158423
0.000936017
0.00169714
0.00243055
0.00313771
0.00380493
0.00442969
0.00502921
0.00559911
0.00613117
0.00662362
0.00707475
0.0074799
0.00783726
0.00815072
0.00842161
0.00865952
0.00885311
0.00899539
0.00910397
0.00918642
0.00922532
0.00922459
0.00919906
0.00914671
0.0090727
0.00896766
0.00883476
0.00868265
0.00850057
0.00831454
0.00811773
0.00790682
0.00769034
0.00746284
0.00723072
0.00698555
0.00673502
0.0064811
0.00622326
0.0059447
0.00561469
0.00526796
0.004913
0.00452131
0.00407504
0.00863945
0.00826235
0.00750083
0.00653757
0.00545398
0.00421034
0.00295457
0.00179635
0.000792192
-4.20259e-05
-0.000736273
-0.00132225
-0.00186313
-0.00241019
-0.00295115
-0.0034894
-0.00406196
-0.00465392
-0.00526508
-0.00589572
-0.00651905
-0.00712506
-0.00771136
-0.00826694
-0.0087859
-0.00924018
-0.00961204
-0.00990873
-0.0101275
-0.0102502
-0.0102788
-0.0102289
-0.0100809
-0.00984186
-0.00953075
-0.00914368
-0.00869002
-0.00817376
-0.00760501
-0.00699717
-0.0063452
-0.00566041
-0.00494962
-0.00422022
-0.00347558
-0.00272581
-0.00197486
-0.0012252
-0.000482889
0.000249117
0.000966439
0.00166517
0.00234283
0.00299635
0.00362326
0.00422283
0.004791
0.00532508
0.0058232
0.00628597
0.00670788
0.00708746
0.00742447
0.00771867
0.00796757
0.00816986
0.00832127
0.0084223
0.00847171
0.0084686
0.00841382
0.00830657
0.00814528
0.0079284
0.00765758
0.00733286
0.00695097
0.00651444
0.00602665
0.00549324
0.00491633
0.0042954
0.00362959
0.00292035
0.00217755
0.00140606
0.000605566
-0.000219425
-0.0010611
-0.00191501
-0.0027794
-0.00364875
-0.00451544
-0.00537216
-0.00621698
-0.00704767
-0.00785241
-0.00862921
-0.00937527
-0.010084
-0.0107484
-0.011365
-0.0119315
-0.0124458
-0.0129016
-0.0133009
-0.0136367
-0.0139075
-0.0141093
-0.0142398
-0.0142994
-0.0142903
-0.014209
-0.0140605
-0.0138442
-0.0135637
-0.0132144
-0.0127964
-0.0123179
-0.0117815
-0.0111913
-0.0105581
-0.00987864
-0.00915171
-0.00837487
-0.0075601
-0.00672917
-0.00587682
-0.00499504
-0.0041049
-0.00320998
-0.00230913
-0.00141228
-0.000529247
0.000340072
0.00119612
0.00203265
0.00283797
0.00361759
0.00435529
0.00504569
0.00570019
0.00631481
0.0068873
0.00742328
0.0079148
0.0083538
0.00873815
0.00907686
0.00937048
0.00962036
0.00981964
0.00997087
0.0100827
0.0101602
0.0101998
0.0102004
0.0101678
0.0100962
0.0100035
0.00989014
0.00974005
0.00956842
0.00936634
0.00915461
0.00893179
0.00869565
0.00845498
0.00819727
0.00793639
0.00767022
0.00739038
0.00710242
0.00680669
0.00649606
0.00615483
0.00579277
0.00541737
0.00501347
0.00455548
0.0106088
0.0106943
0.00994326
0.00900185
0.00798286
0.00675213
0.0054348
0.00416929
0.00301967
0.00202347
0.0011096
0.000244686
-0.000590792
-0.00142748
-0.00228082
-0.00315262
-0.00404276
-0.00495167
-0.00589396
-0.00683937
-0.00773492
-0.00856989
-0.00936364
-0.0100899
-0.0107285
-0.0112641
-0.0116977
-0.0120408
-0.0122654
-0.0123621
-0.0123434
-0.0122215
-0.0119865
-0.0116537
-0.0112398
-0.0107439
-0.0101719
-0.00953661
-0.00884946
-0.00811824
-0.00734451
-0.00654222
-0.00571536
-0.00487361
-0.00402049
-0.00316655
-0.00231573
-0.00147129
-0.000636951
0.000183241
0.000983978
0.00176179
0.00251496
0.00324065
0.00393658
0.00460033
0.00522829
0.00581998
0.00637356
0.00688599
0.0073522
0.00777377
0.00815064
0.00847994
0.00875889
0.00898645
0.00916022
0.00927825
0.00933887
0.0093447
0.00929374
0.00918528
0.0090147
0.00878262
0.00849385
0.00814488
0.00773081
0.00725713
0.00673218
0.00615643
0.005525
0.00484394
0.00411639
0.00334502
0.00253733
0.00169581
0.000820377
-8.43625e-05
-0.00100579
-0.00193729
-0.00287812
-0.00382731
-0.00477741
-0.00571587
-0.00664007
-0.00754589
-0.00842547
-0.00927397
-0.0100877
-0.0108624
-0.01159
-0.0122622
-0.0128803
-0.0134417
-0.0139409
-0.0143756
-0.0147414
-0.0150361
-0.0152561
-0.0153981
-0.0154618
-0.0154463
-0.0153532
-0.0151908
-0.0149578
-0.0146456
-0.0142561
-0.0138009
-0.0132794
-0.0126904
-0.0120435
-0.0113471
-0.0106012
-0.00980254
-0.00895812
-0.0080763
-0.00716572
-0.00622835
-0.00526753
-0.00430137
-0.00332826
-0.00234344
-0.00136361
-0.0004043
0.000541104
0.00147183
0.00237833
0.00325058
0.00409403
0.00489392
0.00564631
0.00635542
0.00701461
0.00762796
0.00820524
0.00873062
0.00919363
0.00960436
0.00997026
0.0102852
0.0105478
0.0107537
0.0109091
0.0110225
0.0110966
0.011138
0.0111379
0.011095
0.011007
0.0108952
0.0107687
0.0106022
0.0104138
0.0101932
0.00995706
0.00970834
0.00944715
0.00918123
0.00889341
0.00860505
0.00831749
0.00801267
0.00769417
0.0073639
0.00702358
0.00667077
0.00629107
0.00589677
0.00547892
0.00500906
0.0130046
0.0136298
0.0131618
0.0123935
0.0113118
0.00990685
0.00840446
0.00693541
0.0055594
0.00429461
0.00307958
0.00192702
0.000766746
-0.00043062
-0.00165365
-0.00292574
-0.00420663
-0.00548167
-0.00676459
-0.0079978
-0.00915002
-0.0102172
-0.0112011
-0.0120742
-0.0128305
-0.0134477
-0.0139195
-0.0142608
-0.0144618
-0.0145157
-0.014436
-0.0142379
-0.0139093
-0.0134716
-0.0129436
-0.0123282
-0.0116365
-0.0108824