/*--------------------------------*- C++ -*----------------------------------*\
  =========                 |
  \\      /  F ield         | OpenFOAM: The Open Source CFD Toolbox
   \\    /   O peration     | Website:  https://openfoam.org
    \\  /    A nd           | Version:  8
     \\/     M anipulation  |
\*---------------------------------------------------------------------------*/
FoamFile
{
    version     2.0;
    format      ascii;
    class       volScalarField;
    location    "200";
    object      vpod_1;
}
// * * * * * * * * * * * * * * * * * * * * * * * * * * * * * * * * * * * * * //

dimensions      [0 1 -1 0 0 0 0];

internalField   nonuniform List<scalar> 
12225
(
0.00310323
0.00166854
0.000766816
0.000418694
0.000212637
5.51846e-05
-5.08066e-05
-0.000117394
-0.000151495
-0.000149563
-0.000147397
-0.000140882
-0.000129222
-8.3536e-05
-0.000403672
-7.30917e-05
-0.00450009
0.00062562
-0.000909858
-0.0012833
-0.00112971
-0.000699591
-0.000461193
-0.000359258
-0.000327392
-0.000338743
-0.000362075
-0.000349424
-0.000340265
-0.000325169
-0.000270912
-0.000269779
6.23223e-05
0.000609963
0.000194302
-0.000170533
-0.00016882
-0.00095113
-0.00131464
-0.00100053
-0.000830624
-0.000750294
-0.000701771
-0.000675162
-0.000655948
-0.000606087
-0.000552094
-0.00047945
-0.000388727
-0.000269432
-0.000108025
0.000339379
-0.000206193
-0.000360339
3.59042e-05
-0.00111326
-0.00165608
-0.00130912
-0.00111838
-0.00102791
-0.000971535
-0.000938772
-0.000911911
-0.000855669
-0.000775669
-0.000669486
-0.000542969
-0.000368987
-0.000112138
0.000388713
0.000517836
0.00123447
0.000160437
-0.00122093
-0.00205815
-0.00174509
-0.00151886
-0.00138613
-0.00129962
-0.00124645
-0.00120689
-0.00113536
-0.0010254
-0.000883585
-0.000713086
-0.000479192
-0.000140413
0.000450973
0.00109067
0.00225319
0.000275413
-0.00134564
-0.00251786
-0.00222748
-0.00194429
-0.00175311
-0.00163106
-0.00155696
-0.0015014
-0.00140845
-0.00126739
-0.00108949
-0.000871353
-0.000573805
-0.00014989
0.000540176
0.00142661
0.00277262
0.000390216
-0.00141993
-0.0029499
-0.00268971
-0.00236967
-0.00213223
-0.0019777
-0.0018834
-0.00180258
-0.00167975
-0.00150731
-0.00129073
-0.00101811
-0.000651626
-0.000146661
0.000609566
0.00160478
0.00303518
0.000500118
-0.00145486
-0.00332051
-0.00312281
-0.00279452
-0.00252589
-0.00234299
-0.00222127
-0.00211288
-0.00195888
-0.00175204
-0.00148695
-0.00115134
-0.00071894
-0.000143915
0.000656391
0.00169129
0.00312338
0.000619381
-0.00145491
-0.00361132
-0.0035132
-0.00320246
-0.00292011
-0.00271172
-0.00256217
-0.0024282
-0.00224022
-0.00198947
-0.00166771
-0.00127066
-0.000781232
-0.000150318
0.000674687
0.00170042
0.00306583
0.00076193
-0.00135527
-0.00381798
-0.00385089
-0.00357707
-0.00329712
-0.00307427
-0.00290244
-0.00273596
-0.00250629
-0.00220501
-0.00182506
-0.00137188
-0.000824231
-0.000140226
0.000695207
0.00168862
0.00297536
0.000943615
-0.0012475
-0.00403664
-0.00418752
-0.00395033
-0.00367623
-0.00343921
-0.00323692
-0.00302701
-0.00274846
-0.00239696
-0.00196658
-0.00145874
-0.000861173
-0.000147658
0.000673776
0.00160942
0.00281259
0.00103673
-0.00130639
-0.00419313
-0.00441524
-0.00420957
-0.00394223
-0.00368925
-0.00345795
-0.0032143
-0.00289234
-0.00249516
-0.00201609
-0.00146014
-0.00082097
-8.29856e-05
0.000739107
0.00163382
0.0028194
0.00121097
-0.00129981
-0.00427604
-0.00446627
-0.00432156
-0.00409712
-0.00384932
-0.00360192
-0.00332653
-0.0029629
-0.00252099
-0.00199692
-0.00139433
-0.000713133
5.40375e-05
0.00088528
0.0017732
0.00299582
0.00138135
-0.00140549
-0.00455852
-0.00462492
-0.00441824
-0.00415774
-0.00386569
-0.00358105
-0.00326933
-0.00287014
-0.00239468
-0.00183847
-0.00120254
-0.00049961
0.000274027
0.00109831
0.00196735
0.00318824
0.00152133
-0.00111391
-0.00453577
-0.00466155
-0.00441693
-0.00410243
-0.00374908
-0.00340877
-0.00303643
-0.00258798
-0.00207155
-0.00147398
-0.00081404
-9.54481e-05
0.00067598
0.0014875
0.00231463
0.00342786
0.00152557
-0.000604254
-0.00404778
-0.00433482
-0.00413335
-0.00380597
-0.00341639
-0.00302857
-0.00259977
-0.00210325
-0.00154037
-0.000915016
-0.000246247
0.000465147
0.00119224
0.00192632
0.00267056
0.00366246
0.00133209
-6.47908e-05
-0.00305691
-0.00345071
-0.00332228
-0.00303385
-0.00266572
-0.00227693
-0.00183092
-0.00132618
-0.00076457
-0.000165444
0.000460775
0.00110215
0.00174658
0.00238384
0.00303328
0.00388003
0.000875409
0.000316284
-0.00167054
-0.00201845
-0.00196181
-0.00174545
-0.00143829
-0.00108199
-0.000668378
-0.00021605
0.000262753
0.000772345
0.00130289
0.00182951
0.00235127
0.00286853
0.00339972
0.004075
0.000161442
0.000276762
2.68253e-05
-5.7081e-05
-2.96033e-05
8.8191e-05
0.00028422
0.000526806
0.00080935
0.00111981
0.00146103
0.00182501
0.00219741
0.00256812
0.00293765
0.00329769
0.00367362
0.00411659
-0.00040748
9.50953e-07
0.00116563
0.00137082
0.00144523
0.00153013
0.00164517
0.00179102
0.00196076
0.00215696
0.00237098
0.0026023
0.00283725
0.0030771
0.00331669
0.00355672
0.00381171
0.00406795
-0.000673255
4.96599e-05
0.00185559
0.00215383
0.00222815
0.00228747
0.00235984
0.0024508
0.00255871
0.0026867
0.00282741
0.00298236
0.00314294
0.00330859
0.00347738
0.00364881
0.00383127
0.00398534
-0.000806762
0.00021363
0.00235321
0.00263613
0.00268169
0.00271123
0.00275114
0.00280057
0.00286601
0.00294131
0.00302676
0.00311801
0.00321648
0.00331692
0.00342618
0.00353628
0.00366406
0.00374183
-0.000825154
0.00045315
0.00267986
0.00285908
0.00284017
0.00283312
0.00283884
0.00285574
0.00288603
0.00292003
0.00296018
0.00300679
0.00305459
0.00311608
0.00317934
0.00324624
0.00333283
0.00334156
-0.000752554
0.000702384
0.00279855
0.00282476
0.00273097
0.0026792
0.00265463
0.00264872
0.00265441
0.00266303
0.00267567
0.00270045
0.00272684
0.00276072
0.00279998
0.00284371
0.00289313
0.00284617
-0.000622119
0.000873363
0.00266768
0.00255156
0.00241494
0.0023409
0.00230256
0.00228233
0.00227617
0.00227644
0.00228128
0.00229384
0.00231112
0.002333
0.0023607
0.00238961
0.00243261
0.00236353
-0.00045744
0.000930962
0.00231538
0.00209212
0.00196176
0.00190937
0.00188713
0.00187058
0.00185616
0.00185027
0.00185026
0.00185653
0.00186736
0.00187911
0.00189253
0.00191196
0.00194176
0.00185646
-0.000283368
0.000922344
0.00190388
0.00161391
0.00148263
0.00144522
0.00143292
0.00142149
0.00140476
0.00139942
0.00139298
0.00138641
0.0013926
0.00139174
0.00138945
0.00139729
0.00141096
0.00133891
-5.91033e-05
0.000810145
0.00153285
0.00130255
0.00119193
0.00114478
0.0011078
0.0010723
0.00103177
0.00100372
0.000987981
0.000965213
0.000954272
0.000939933
0.000925541
0.000920646
0.000924207
0.000841489
0.000671827
0.00121342
0.00136157
0.000994791
0.000797026
0.000699382
0.000637551
0.000581879
0.000538072
0.000488116
0.000446596
0.000414573
0.00038201
0.000358165
0.000342193
0.000333261
0.000342044
0.000287745
-0.00254692
-0.00132458
-0.000596181
-0.000308336
-9.05026e-05
7.98811e-05
0.000194365
0.000278601
0.000352161
0.000383797
0.000414036
0.000431311
0.000421192
0.000420053
0.000424415
0.000425871
0.000446705
0.000462289
0.000477602
-0.000367439
-0.000915964
-0.00126322
-0.00132876
-0.00131657
-0.0013267
-0.00126676
-0.00112839
-0.000957395
-0.000767334
-0.000597113
-0.00045737
-0.000357037
-0.000258504
-0.000166561
-8.61441e-05
-1.55925e-05
7.12396e-05
0.000193377
0.000355446
0.000506556
0.000609919
0.000741972
0.000866259
0.000984699
0.00110559
0.00122299
0.00133671
0.00143194
0.00150855
0.00156905
0.00162009
0.00164706
0.00167436
0.00168152
0.00168544
0.00168099
0.00168488
0.00167487
0.00166849
0.00165687
0.00165053
0.0016327
0.001624
0.00160958
0.00159901
0.00157782
0.00156467
0.00154349
0.00152593
0.00150054
0.0014863
0.00146592
0.00145223
0.00142983
0.00141337
0.00138818
0.00137161
0.00134884
0.00132998
0.0013046
0.00128826
0.00126528
0.00124388
0.00121514
0.0011936
0.00116375
0.00113865
0.00110749
0.00108015
0.00104442
0.00101458
0.000981499
0.000951782
0.000914927
0.000882186
0.000846078
0.000814006
0.000777439
0.000746687
0.000712403
0.000677955
0.000638249
0.000603562
0.000568017
0.000535299
0.000498906
0.000461872
0.000426449
0.000390041
0.000353263
0.000316388
0.000278704
0.000244071
0.000204414
0.00016641
0.000131606
9.65062e-05
6.53176e-05
3.27921e-05
-1.40973e-07
-2.72382e-05
-5.65801e-05
-9.05126e-05
-0.000115797
-0.000140324
-0.000168465
-0.000191653
-0.00021776
-0.000242129
-0.000262859
-0.000280602
-0.000296973
-0.000313954
-0.000330374
-0.000346956
-0.000372061
-0.000393849
-0.000403271
-0.000412227
-0.000421603
-0.000436315
-0.000445345
-0.000431199
-0.000437074
-0.000446307
-0.000428729
-0.00043447
-0.000444155
-0.000441609
-0.000433193
-0.000434073
-0.000439108
-0.000438252
-0.000436725
-0.00042381
-0.000420392
-0.000422067
-0.000406594
-0.000385373
-0.000376393
-0.000378691
-0.000376391
-0.000348251
-0.000329349
-0.000349861
-0.000360754
-0.000334554
-0.000319401
-0.000321803
-0.000306056
-0.000289516
-0.000290058
-0.000288799
-0.00029531
-0.000293869
-0.000269225
-0.000263221
-0.000267781
-0.000255106
-0.000249251
-0.000244818
-0.000239486
-0.000239578
-0.000247408
-0.000245119
-0.000225203
-0.000228427
-0.000241806
-0.000234241
-0.000238215
-0.000248223
-0.000272121
-0.000308136
-0.000310313
-0.00036425
-0.000453496
-0.000583692
-0.000645192
-0.00250821
-0.00377671
-0.00445973
-0.00486885
-0.00498197
-0.00482579
-0.00453706
-0.00415099
-0.0037023
-0.00321708
-0.00271978
-0.00224599
-0.00181632
-0.00142784
-0.00106902
-0.00072752
-0.000394785
-6.06842e-05
0.000286375
0.000643938
0.00101104
0.00137594
0.00171721
0.00203659
0.00233173
0.00259937
0.00284101
0.0030528
0.00323105
0.00337505
0.00349209
0.0035817
0.00364631
0.00368792
0.00371521
0.00372881
0.00373326
0.00372553
0.00371396
0.00369325
0.00367353
0.0036481
0.00362423
0.00359232
0.00356418
0.00352951
0.0034974
0.00346248
0.00342762
0.00338636
0.00335017
0.00331047
0.00327436
0.00323296
0.00319301
0.00314733
0.00310205
0.00305265
0.00300695
0.00295604
0.00290858
0.0028537
0.00280135
0.00274232
0.00268433
0.00262335
0.00256372
0.00249626
0.00242972
0.00236033
0.00229377
0.00221941
0.00214471
0.0020647
0.00199245
0.00191717
0.00184389
0.00176538
0.00168863
0.00161248
0.00153628
0.00145869
0.00138419
0.0013052
0.0012257
0.00114689
0.00107396
0.00099368
0.000916294
0.000840062
0.000762432
0.000685804
0.000608768
0.000535712
0.000462684
0.000391982
0.00032381
0.00025897
0.000192932
0.000125019
6.1099e-05
3.81533e-06
-4.92468e-05
-0.000101322
-0.000150296
-0.000206159
-0.000252514
-0.000291218
-0.000335006
-0.000373582
-0.000408671
-0.000446602
-0.000479841
-0.000503599
-0.000531082
-0.000555536
-0.000573467
-0.000598439
-0.000613826
-0.00061847
-0.000626367
-0.00064027
-0.000660435
-0.000683975
-0.000692562
-0.000687922
-0.00068427
-0.000690895
-0.00068986
-0.000682541
-0.00067405
-0.000672152
-0.000665079
-0.000654693
-0.000644726
-0.000633238
-0.000632607
-0.000635131
-0.000630918
-0.000628369
-0.000618044
-0.00060191
-0.000585886
-0.00057274
-0.000564336
-0.000542263
-0.00052165
-0.000522482
-0.000524393
-0.000497814
-0.000487173
-0.00050012
-0.000495254
-0.000465232
-0.000452404
-0.000444114
-0.000442431
-0.000451065
-0.000427371
-0.000411537
-0.000408049
-0.00041486
-0.00041071
-0.000399909
-0.000394671
-0.000381258
-0.000403223
-0.000400121
-0.000379745
-0.00040472
-0.000439511
-0.000435383
-0.000445273
-0.000487344
-0.000531085
-0.000595794
-0.000696713
-0.00083406
-0.00113423
-0.00142746
-0.00632859
-0.0077158
-0.0080296
-0.00800335
-0.00768431
-0.00713528
-0.00645424
-0.00570529
-0.00492771
-0.00413786
-0.00336049
-0.00262217
-0.00192728
-0.00126873
-0.00063838
-3.13998e-05
0.000563861
0.00114771
0.0017129
0.00225636
0.00278374
0.00328482
0.00374081
0.00415563
0.00452892
0.00485483
0.0051311
0.00536225
0.00554638
0.00568885
0.0057965
0.0058725
0.0059176
0.00594156
0.00594719
0.00594196
0.00592909
0.00590955
0.00588608
0.00585754
0.00582687
0.00578889
0.00575088
0.00571115
0.00567017
0.0056223
0.00557088
0.0055182
0.00546285
0.00540429
0.00534482
0.00528208
0.00521753
0.00514883
0.00507612
0.00500162
0.00492894
0.00485545
0.00477883
0.00469629
0.00461438
0.00452675
0.00443653
0.00434252
0.00424755
0.00414836
0.00404618
0.00393923
0.00383117
0.00372165
0.00361028
0.00349488
0.00337791
0.00325768
0.00313841
0.00301684
0.00289633
0.00277326
0.00265073
0.00252617
0.00240062
0.00227688
0.00215387
0.00203001
0.00190685
0.00178427
0.00166311
0.00153816
0.00141474
0.00129143
0.00116743
0.00104686
0.000932187
0.000819358
0.000704898
0.000595786
0.000489207
0.000385411
0.000284033
0.000185608
9.18239e-05
1.91555e-06
-8.53011e-05
-0.000167036
-0.000242915
-0.000322186
-0.000394545
-0.000459234
-0.000525934
-0.000584859
-0.000636339
-0.000691268
-0.000743103
-0.000781259
-0.000814238
-0.000844573
-0.000873151
-0.000904167
-0.000922985
-0.000936171
-0.00095336
-0.000973613
-0.000999539
-0.00102142
-0.00102982
-0.00102142
-0.00101285
-0.00102061
-0.00102763
-0.00102291
-0.00100453
-0.000990475
-0.00097982
-0.000970881
-0.000957569
-0.000937512
-0.000927919
-0.00092468
-0.000922338
-0.000923889
-0.000918631
-0.000898364
-0.000861015
-0.000834173
-0.000829885
-0.000803454
-0.000771738
-0.000767564
-0.000772834
-0.000743038
-0.000710348
-0.000715157
-0.000721913
-0.000694479
-0.000671958
-0.000653992
-0.000645401
-0.000657291
-0.000638641
-0.000617043
-0.000603483
-0.000598388
-0.000596066
-0.000590801
-0.000584507
-0.000567164
-0.000587119
-0.000596346
-0.000577246
-0.000599721
-0.000641655
-0.000640856
-0.000650522
-0.000688237
-0.00073687
-0.000845782
-0.000974323
-0.00113623
-0.00148205
-0.00191932
-0.0103125
-0.01132
-0.0110985
-0.0105667
-0.00978619
-0.00882877
-0.0077834
-0.00670143
-0.00561262
-0.00453638
-0.00349276
-0.00249545
-0.00154293
-0.000636751
0.000220378
0.00103684
0.00182071
0.00256502
0.00326516
0.00392279
0.00453687
0.00509852
0.00559999
0.00604497
0.00643586
0.00677218
0.00705612
0.0072898
0.00747636
0.00762467
0.00773848
0.00781911
0.0078744
0.00791211
0.00793448
0.00794434
0.00794386
0.0079351
0.00791902
0.0078966
0.0078672
0.00783057
0.00779239
0.00774904
0.00769912
0.00764398
0.00758531
0.00752171
0.00745296
0.00737937
0.00729925
0.00721276
0.00712197
0.00702708
0.0069305
0.00683428
0.00673715
0.0066349
0.00652583
0.00641193
0.00629563
0.00617513
0.00605005
0.0059214
0.00578971
0.00565087
0.00550829
0.00536314
0.00521573
0.00506495
0.0049102
0.0047545
0.0045986
0.00443873
0.00427338
0.00410612
0.00393901
0.00377109
0.0036037
0.00343169
0.0032582
0.00308662
0.00291575
0.00274673
0.00257937
0.00241039
0.00224079
0.00207264
0.00190383
0.00173375
0.00156459
0.00139961
0.00124404
0.00108959
0.000933107
0.000785086
0.00063926
0.000495045
0.000357606
0.000228168
0.000103862
-1.94083e-05
-0.000141943
-0.000255761
-0.000359586
-0.000462703
-0.00056228
-0.000653575
-0.000743349
-0.000823858
-0.000893149
-0.000963534
-0.00103392
-0.00109031
-0.00113305
-0.00117239
-0.00121077
-0.0012471
-0.00127441
-0.00130257
-0.00133195
-0.00135546
-0.00137866
-0.00139331
-0.00140485
-0.00140153
-0.001394
-0.00140213
-0.00140914
-0.00140383
-0.0013796
-0.00135701
-0.00134148
-0.00133118
-0.00131502
-0.00129026
-0.00127645
-0.00126609
-0.00125753
-0.00125342
-0.00124665
-0.00122198
-0.00116968
-0.00113097
-0.00112941
-0.00110538
-0.00106367
-0.00104578
-0.0010477
-0.00102041
-0.000972584
-0.000964953
-0.000977028
-0.000952189
-0.000920726
-0.000891775
-0.000872842
-0.000884936
-0.000868362
-0.000844366
-0.000825994
-0.000810094
-0.000805894
-0.000807162
-0.000798069
-0.000778552
-0.000792445
-0.000812979
-0.000801161
-0.000808331
-0.000844369
-0.000849348
-0.000866196
-0.000896752
-0.000954147
-0.00111242
-0.00126427
-0.00144696
-0.00181346
-0.00224368
-0.013769
-0.0142301
-0.0134668
-0.0124549
-0.0112587
-0.00993606
-0.00856391
-0.00718367
-0.00581634
-0.00448481
-0.00320635
-0.00198978
-0.000836049
0.000250285
0.0012724
0.00223595
0.00313791
0.00397702
0.00475382
0.00546561
0.00611405
0.00669864
0.00722022
0.00768318
0.00808915
0.00844171
0.00874197
0.00899187
0.00919977
0.00937121
0.00950952
0.00961681
0.00970276
0.00977076
0.00982049
0.00985333
0.00987101
0.00987674
0.00987345
0.00986209
0.0098407
0.00980978
0.00977151
0.00972448
0.00967016
0.00960829
0.00953928
0.00946336
0.00938061
0.0092915
0.00919475
0.00909034
0.00898007
0.00886467
0.00874528
0.00862261
0.00849571
0.00836303
0.00822425
0.00808015
0.00793133
0.00777803
0.00761987
0.00745657
0.00728842
0.00711383
0.00693506
0.00675294
0.00656676
0.00637588
0.00618091
0.00598389
0.00578532
0.00558354
0.00537691
0.0051676
0.004956
0.00474277
0.00452946
0.00431311
0.00409479
0.00387676
0.00366036
0.00344516
0.0032304
0.0030148
0.0027997
0.00258684
0.00237251
0.00215829
0.00194724
0.00174076
0.00154108
0.00134346
0.00114698
0.000959104
0.000775591
0.000594543
0.000421021
0.000256076
9.69804e-05
-5.89406e-05
-0.000210399
-0.000352577
-0.00048667
-0.00061554
-0.000738618
-0.000854339
-0.000963984
-0.00106508
-0.00115629
-0.00124321
-0.00132613
-0.00139797
-0.00145559
-0.00150675
-0.00155445
-0.00159875
-0.00163742
-0.00167426
-0.00170843
-0.00173532
-0.00175726
-0.0017711
-0.00178329
-0.00178594
-0.00178227
-0.0017847
-0.00178673
-0.00177946
-0.00175702
-0.0017322
-0.00171148
-0.00169599
-0.00167501
-0.00164937
-0.00163063
-0.00161284
-0.00159576
-0.00158051
-0.00156344
-0.00153352
-0.00148453
-0.00144408
-0.00142747
-0.00140175
-0.00136276
-0.00133365
-0.00131936
-0.00129304
-0.00125018
-0.00122833
-0.00122481
-0.00120174
-0.00116893
-0.00113548
-0.00111183
-0.00111016
-0.00109343
-0.00107085
-0.00105143
-0.00103052
-0.00102056
-0.00102004
-0.00100995
-0.000996259
-0.000999222
-0.0010191
-0.00102098
-0.00101692
-0.00103736
-0.00105419
-0.00108231
-0.00111488
-0.00118605
-0.00135228
-0.00151724
-0.00171988
-0.00207334
-0.00247317
-0.0164896
-0.0164704
-0.0152701
-0.0138462
-0.0122761
-0.0106268
-0.00896235
-0.0073173
-0.00571224
-0.00416947
-0.00270222
-0.00131516
-1.0364e-05
0.00120605
0.00233789
0.00338779
0.00435661
0.00524845
0.00606647
0.00681143
0.00748581
0.00809251
0.00863622
0.0091208
0.00955064
0.00993157
0.0102603
0.010542
0.0107841
0.0109916
0.0111678
0.0113142
0.0114368
0.0115371
0.0116148
0.0116742
0.0117166
0.0117427
0.0117559
0.0117559
0.0117422
0.0117167
0.0116798
0.0116309
0.0115716
0.011503
0.011425
0.0113376
0.0112411
0.0111364
0.011023
0.0109011
0.0107718
0.0106357
0.0104933
0.0103448
0.0101901
0.0100287
0.00986123
0.00968788
0.00950845
0.00932307
0.00913205
0.00893493
0.00873201
0.00852352
0.00831002
0.00809105
0.00786706
0.00763786
0.00740454
0.00716804
0.00692851
0.00668523
0.00643771
0.00618662
0.00593248
0.00567678
0.00542013
0.00516055
0.00489773
0.00463426
0.00437229
0.00411193
0.00385195
0.00359138
0.00333216
0.00307446
0.00281729
0.00256195
0.00230925
0.00206044
0.00181718
0.00157827
0.00134441
0.00111878
0.000897905
0.000681291
0.000473293
0.000273746
8.07802e-05
-0.000106554
-0.000286793
-0.000457357
-0.000619073
-0.000773853
-0.000920315
-0.00105792
-0.00118644
-0.00130661
-0.00141707
-0.00151971
-0.00161468
-0.00169975
-0.00177313
-0.00183774
-0.0018944
-0.00194669
-0.00199319
-0.00203581
-0.0020742
-0.00210501
-0.00212797
-0.00214382
-0.00215557
-0.00216097
-0.00215876
-0.00215745
-0.00215501
-0.00214457
-0.00212364
-0.00209896
-0.00207372
-0.00205222
-0.00202594
-0.00199661
-0.00197219
-0.00194814
-0.0019232
-0.00189829
-0.00187118
-0.0018365
-0.00179108
-0.00174887
-0.00171847
-0.00168745
-0.00164965
-0.00161374
-0.00158748
-0.00155793
-0.0015189
-0.00148726
-0.00146661
-0.00144101
-0.00140957
-0.00137455
-0.0013474
-0.00133369
-0.0013138
-0.00129015
-0.00126846
-0.0012458
-0.00123172
-0.00122578
-0.0012156
-0.00120421
-0.00120153
-0.00121462
-0.00122207
-0.0012194
-0.00123457
-0.00125833
-0.00129222
-0.0013362
-0.00141706
-0.00157066
-0.00174405
-0.00195849
-0.00228738
-0.00266172
-0.0185396
-0.0181057
-0.0165729
-0.0148054
-0.0129195
-0.0109927
-0.0090814
-0.00722183
-0.00542857
-0.00372162
-0.00211355
-0.000608187
0.000796957
0.00209861
0.00329967
0.00440204
0.00541337
0.00634564
0.00719878
0.00797205
0.00867331
0.00930967
0.00988598
0.0104048
0.0108708
0.0112918
0.0116612
0.0119863
0.0122725
0.0125267
0.0127476
0.0129367
0.013098
0.013234
0.0133448
0.0134332
0.0134994
0.0135453
0.0135748
0.0135857
0.0135796
0.0135587
0.0135229
0.0134722
0.0134094
0.0133344
0.0132465
0.0131473
0.0130375
0.0129176
0.0127875
0.0126476
0.0124985
0.0123411
0.0121756
0.0120023
0.011821
0.0116326
0.0114375
0.0112353
0.0110255
0.010809
0.0105864
0.0103565
0.0101202
0.00987821
0.00963027
0.00937571
0.00911563
0.00885024
0.00858031
0.00830622
0.00802734
0.00774315
0.00745439
0.00716236
0.00686785
0.00657115
0.0062719
0.00596977
0.00566528
0.00535916
0.00505232
0.00474677
0.00444211
0.00413726
0.00383439
0.00353419
0.00323664
0.00294094
0.00264717
0.00235675
0.00207248
0.00179572
0.00152621
0.00126329
0.0010055
0.00075385
0.000511453
0.000279084
5.42987e-05
-0.000162519
-0.000370845
-0.000569751
-0.000757858
-0.000936487
-0.001106
-0.001264
-0.00141146
-0.00154936
-0.00167625
-0.00179323
-0.00190138
-0.00199903
-0.00208531
-0.00216238
-0.00222964
-0.00228856
-0.0023402
-0.00238789
-0.00243068
-0.00246555
-0.00249082
-0.00250707
-0.00251827
-0.00252445
-0.0025232
-0.00251898
-0.00251222
-0.00249876
-0.00247807
-0.00245451
-0.00242688
-0.00239878
-0.0023674
-0.00233283
-0.00230167
-0.00227078
-0.00223734
-0.00220462
-0.0021714
-0.00213261
-0.00208655
-0.0020409
-0.00200215
-0.00196533
-0.00192537
-0.00188426
-0.00184976
-0.00181541
-0.00177471
-0.00173528
-0.00170409
-0.00167442
-0.00164162
-0.00160601
-0.00157571
-0.00155313
-0.00152861
-0.00150149
-0.00147742
-0.00145409
-0.00143726
-0.00142713
-0.00141555
-0.00140456
-0.00139874
-0.00140357
-0.00141005
-0.00141322
-0.00143066
-0.00145848
-0.0014954
-0.00154894
-0.00163414
-0.00177686
-0.00195357
-0.00217069
-0.00247307
-0.00282185
-0.0200897
-0.0192707
-0.017461
-0.0154151
-0.0132557
-0.011099
-0.00899371
-0.00697184
-0.00504705
-0.00322753
-0.00152456
5.74598e-05
0.00152931
0.00288438
0.00412722
0.00526595
0.00631028
0.00727548
0.00816258
0.00897353
0.00971407
0.0103899
0.0110078
0.0115764
0.0120949
0.012566
0.0129873
0.0133659
0.0137062
0.014012
0.0142792
0.014511
0.0147113
0.0148829
0.0150242
0.0151383
0.015226
0.0152908
0.0153348
0.0153552
0.0153545
0.0153358
0.0153001
0.0152475
0.0151809
0.0150991
0.0150019
0.0148914
0.0147678
0.014632
0.0144845
0.0143257
0.0141567
0.0139777
0.0137891
0.0135912
0.0133845
0.0131703
0.0129478
0.0127169
0.0124779
0.0122321
0.0119787
0.0117175
0.0114494
0.0111745
0.0108926
0.0106043
0.01031
0.0100097
0.00970385
0.00939252
0.00907514
0.00875209
0.0084243
0.00809295
0.00775863
0.00742097
0.00707934
0.00673576
0.00639128
0.00604455
0.00569598
0.00534746
0.00499932
0.00465195
0.00430681
0.00396567
0.00362777
0.00329124
0.00295813
0.00262998
0.00230839
0.00199428
0.00168705
0.00138694
0.00109453
0.000810185
0.000535521
0.000271797
1.61342e-05
-0.000229788
-0.000464688
-0.000689213
-0.000902389
-0.00110393
-0.00129454
-0.00147215
-0.00163753
-0.00179096
-0.00193345
-0.00206574
-0.00218717
-0.00229617
-0.00239257
-0.00247918
-0.0025565
-0.00262255
-0.00268015
-0.00273155
-0.00277646
-0.00281483
-0.00284368
-0.00286142
-0.00287174
-0.00287567
-0.00287437
-0.00286844
-0.00285843
-0.00284241
-0.00281965
-0.00279458
-0.0027654
-0.00273212
-0.00269712
-0.00265878
-0.00261938
-0.00257963
-0.00253802
-0.00249916
-0.00246197
-0.00241929
-0.00237085
-0.00232146
-0.00227562
-0.00223194
-0.00218829
-0.00214395
-0.00210276
-0.00206281
-0.00201839
-0.00197438
-0.00193795
-0.00190293
-0.00186442
-0.00182766
-0.00179539
-0.00176585
-0.00173595
-0.00170463
-0.00167821
-0.00165451
-0.00163492
-0.00162228
-0.00160855
-0.00159678
-0.00158931
-0.00158777
-0.0015916
-0.00159886
-0.00161907
-0.00164985
-0.00169087
-0.00174916
-0.00183549
-0.00197239
-0.00214858
-0.0023615
-0.00263802
-0.00295996
-0.0212322
-0.0200397
-0.0179962
-0.0157183
-0.0133444
-0.0110227
-0.00878156
-0.00664104
-0.00462414
-0.00273323
-0.000972661
0.000663428
0.00218187
0.00356707
0.00483696
0.00601127
0.00709322
0.00809534
0.00901885
0.00986961
0.0106561
0.0113861
0.0120666
0.0126982
0.0132767
0.0138056
0.0142862
0.0147217
0.0151129
0.0154646
0.0157769
0.0160489
0.0162853
0.0164885
0.0166569
0.0167942
0.0169014
0.0169829
0.0170376
0.0170633
0.0170669
0.01705
0.0170139
0.0169581
0.0168849
0.0167937
0.0166852
0.0165617
0.0164232
0.016271
0.0161058
0.0159282
0.0157389
0.0155382
0.0153266
0.0151052
0.0148743
0.0146345
0.0143847
0.0141265
0.0138599
0.0135853
0.0133018
0.0130108
0.0127123
0.0124061
0.0120918
0.0117706
0.0114428
0.0111079
0.0107665
0.0104187
0.010065
0.00970593
0.00934118
0.00897152
0.00859806
0.00822088
0.00783881
0.00745431
0.00706946
0.0066835
0.00629596
0.00590752
0.0055196
0.00513294
0.00474763
0.00436576
0.00398753
0.0036124
0.00324159
0.00287678
0.00251895
0.00216844
0.00182479
0.00148975
0.00116505
0.000849904
0.000544447
0.000249544
-3.49411e-05
-0.000308101
-0.000568664
-0.00081713
-0.00105237
-0.00127531
-0.00148526
-0.00168163
-0.00186391
-0.00203249
-0.00218915
-0.00233499
-0.0024678
-0.00258704
-0.00269326
-0.0027894
-0.00287501
-0.00294727
-0.00300986
-0.00306439
-0.00311072
-0.0031512
-0.00318279
-0.00320392
-0.00321381
-0.00321454
-0.0032125
-0.00320664
-0.00319311
-0.00317326
-0.00314765
-0.00311885
-0.00308666
-0.00305027
-0.00301179
-0.00296965
-0.00292342
-0.00287655
-0.0028282
-0.00278223
-0.00273926
-0.00269243
-0.00264153
-0.00258955
-0.00253771
-0.00248663
-0.00243713
-0.00238983
-0.00234354
-0.00229858
-0.00225088
-0.00220431
-0.00216345
-0.00212337
-0.00208008
-0.00203993
-0.00200415
-0.00196897
-0.00193513
-0.00190093
-0.0018706
-0.00184537
-0.00182279
-0.00180783
-0.0017925
-0.0017791
-0.00177063
-0.00176603
-0.00176897
-0.00177786
-0.0017981
-0.00183036
-0.00187549
-0.00193715
-0.00202463
-0.002156
-0.00232593
-0.00253027
-0.002784
-0.00308032
-0.0220607
-0.0205615
-0.0183416
-0.0158703
-0.0132967
-0.0108141
-0.00847001
-0.0062678
-0.00420594
-0.00227751
-0.000478979
0.0011899
0.00272777
0.0041366
0.00543997
0.00665197
0.00777307
0.00882019
0.00979816
0.0107097
0.0115653
0.0123686
0.0131167
0.0138096
0.0144462
0.0150335
0.015575
0.0160656
0.0165057
0.016902
0.0172547
0.01756
0.0178277
0.0180583
0.0182484
0.0184041
0.0185261
0.0186176
0.0186789
0.0187095
0.0187154
0.0186971
0.0186561
0.0185933
0.0185106
0.0184079
0.0182866
0.0181486
0.0179942
0.017825
0.0176416
0.0174446
0.0172347
0.0170126
0.0167789
0.0165347
0.01628
0.0160149
0.0157396
0.0154555
0.0151617
0.0148585
0.0145465
0.0142265
0.0138983
0.0135621
0.0132172
0.0128645
0.0125039
0.0121357
0.0117609
0.0113794
0.0109911
0.0105962
0.0101959
0.00979091
0.00938025
0.00896445
0.00854432
0.00812186
0.00769839
0.00727392
0.00684801
0.00642073
0.00599479
0.00557086
0.00514817
0.00472765
0.00431154
0.00390066
0.00349383
0.00309241
0.00269849
0.00231399
0.00193853
0.00157208
0.00121594
0.000870468
0.000535337
0.000211687
-9.92784e-05
-0.000397163
-0.00068126
-0.000951873
-0.00120736
-0.00144946
-0.00167744
-0.00189148
-0.00209072
-0.00227469
-0.00244368
-0.00259946
-0.00274106
-0.00287003
-0.00298608
-0.00309076
-0.00318284
-0.00326134
-0.00332863
-0.00338578
-0.00343338
-0.00347446
-0.00350712
-0.00352956
-0.00353973
-0.00353983
-0.00353669
-0.00352862
-0.00351062
-0.00348798
-0.00346099
-0.00342797
-0.00339053
-0.00335112
-0.00330881
-0.00326194
-0.00321113
-0.00315984
-0.00310565
-0.00305255
-0.00300241
-0.00295058
-0.00289724
-0.00284323
-0.00278664
-0.00272961
-0.00267485
-0.00262337
-0.0025721
-0.00252117
-0.00247018
-0.00242172
-0.00237632
-0.00233188
-0.00228649
-0.00224168
-0.0021997
-0.00215981
-0.00212501
-0.00208994
-0.00205439
-0.00202587
-0.0020004
-0.0019826
-0.00196616
-0.00195199
-0.00194264
-0.00193648
-0.00193984
-0.00194923
-0.00196709
-0.0019994
-0.00204679
-0.00211226
-0.00220148
-0.00232538
-0.0024854
-0.00267926
-0.00291446
-0.0031881
-0.0226533
-0.0208939
-0.0185347
-0.0159099
-0.0131771
-0.0105775
-0.00816583
-0.0059203
-0.00382696
-0.00186712
-4.55991e-05
0.00163685
0.00319731
0.00464619
0.00599596
0.00725782
0.00844186
0.00955689
0.0105967
0.0115706
0.0124952
0.0133717
0.0141858
0.0149407
0.0156409
0.016289
0.0168814
0.0174121
0.0178921
0.0183258
0.0187109
0.0190461
0.0193392
0.0195893
0.0197949
0.0199617
0.0200932
0.02019
0.0202528
0.0202838
0.0202874
0.0202634
0.0202145
0.0201415
0.0200471
0.019931
0.0197949
0.0196405
0.0194693
0.0192824
0.0190801
0.0188632
0.0186329
0.0183898
0.0181345
0.0178676
0.017589
0.0172999
0.0170004
0.0166907
0.0163701
0.0160403
0.0157016
0.0153537
0.0149968
0.0146315
0.0142575
0.0138749
0.0134831
0.0130842
0.0126781
0.0122642
0.0118424
0.0114137
0.0109799
0.0105407
0.0100954
0.00964386
0.00918867
0.00873106
0.00827057
0.00780829
0.00734529
0.00688211
0.00642039
0.00595999
0.00550079
0.00504375
0.00459223
0.00414703
0.00370746
0.00327364
0.00284699
0.00243012
0.00202393
0.00162803
0.00124243
0.00086906
0.000507857
0.000159173
-0.000176536
-0.000496329
-0.000801512
-0.00109243
-0.0013676
-0.00162768
-0.0018726
-0.00210191
-0.00231571
-0.0025128
-0.00269367
-0.00285893
-0.00300895
-0.00314656
-0.0032717
-0.00338175
-0.00347717
-0.00356103
-0.00363358
-0.00369354
-0.00374274
-0.00378385
-0.00381614
-0.00383691
-0.00384747
-0.00384879
-0.00384327
-0.00383061
-0.00380972
-0.00378565
-0.00375681
-0.00371916
-0.00367629
-0.00363303
-0.00358637
-0.00353481
-0.00347995
-0.00342473
-0.00336634
-0.00330818
-0.00325148
-0.00319399
-0.0031372
-0.00308
-0.00301835
-0.00295685
-0.00290006
-0.00284453
-0.00278715
-0.0027302
-0.00267496
-0.00262368
-0.00257518
-0.00252735
-0.00247934
-0.00242928
-0.00238163
-0.00233852
-0.00230234
-0.00226668
-0.00222768
-0.00219606
-0.00216723
-0.00214635
-0.00212869
-0.00211403
-0.00210395
-0.0020968
-0.00210082
-0.00211039
-0.00212617
-0.00215713
-0.00220531
-0.00227297
-0.00236253
-0.00247825
-0.00262915
-0.00281226
-0.00303072
-0.00328365
-0.0231842
-0.0211561
-0.0185563
-0.015731
-0.0129073
-0.0102723
-0.00783886
-0.00557557
-0.00346389
-0.00149334
0.000342339
0.00206096
0.00366203
0.0051544
0.00656009
0.00787701
0.00912415
0.01031
0.0114226
0.0124765
0.0134772
0.0144205
0.0152981
0.0161131
0.016865
0.0175585
0.0181942
0.0187669