/*--------------------------------*- C++ -*----------------------------------*\
  =========                 |
  \\      /  F ield         | OpenFOAM: The Open Source CFD Toolbox
   \\    /   O peration     | Website:  https://openfoam.org
    \\  /    A nd           | Version:  8
     \\/     M anipulation  |
\*---------------------------------------------------------------------------*/
FoamFile
{
    version     2.0;
    format      ascii;
    class       volScalarField;
    location    "200";
    object      vpod_0;
}
// * * * * * * * * * * * * * * * * * * * * * * * * * * * * * * * * * * * * * //

dimensions      [0 1 -1 0 0 0 0];

internalField   nonuniform List<scalar> 
12225
(
-0.0206992
-0.0173599
-0.0101589
-0.00531312
-0.00257553
-0.00112434
-0.00038148
1.35873e-06
0.000201941
0.000306942
0.000360697
0.000399549
0.000430124
0.00046675
0.000520607
0.000623666
0.000614854
0.00107218
0.00531116
0.00764381
0.00610105
0.00436112
0.00316416
0.00238678
0.00187355
0.00152412
0.00128328
0.00111363
0.000992765
0.000909288
0.000860247
0.000851819
0.000911021
0.00109201
0.00150136
0.00244803
0.00136463
0.00125249
0.000724214
0.000727476
0.000929104
0.00108145
0.0011532
0.00118119
0.00119175
0.00119644
0.00120079
0.00121303
0.00124051
0.00130121
0.00140925
0.00166216
0.00195982
0.00298438
0.000265336
0.000559122
0.000759915
0.00104253
0.00124723
0.00133692
0.00135672
0.00135411
0.00135113
0.00135389
0.00136513
0.00139105
0.00143783
0.00152321
0.00166761
0.00192707
0.00230623
0.00299944
0.000181288
0.000658811
0.000882518
0.00106521
0.00119335
0.00126263
0.00129063
0.00130445
0.00131937
0.00134129
0.00137339
0.00142169
0.00149333
0.00160518
0.00177559
0.00204341
0.00241398
0.00296692
0.000236157
0.000637478
0.000788633
0.000939733
0.0010696
0.00115982
0.00121125
0.00124459
0.00127628
0.00131448
0.0013634
0.00142914
0.00151947
0.00164911
0.00183347
0.00209741
0.00244453
0.00290476
0.000239916
0.000537312
0.000655889
0.000818906
0.000962688
0.00106774
0.00113416
0.001181
0.00122514
0.00127625
0.00133867
0.00141817
0.00152256
0.00166391
0.001854
0.00210716
0.00242293
0.0028075
0.000225709
0.000448058
0.00054366
0.00071405
0.000863497
0.000976121
0.00105324
0.00111142
0.0011668
0.00122933
0.0013033
0.00139419
0.00150934
0.00165768
0.00184754
0.00208586
0.00236823
0.00269349
0.00021425
0.00037966
0.000446468
0.000613464
0.000763958
0.000882092
0.00096836
0.00103688
0.00110247
0.00117513
0.00125917
0.00135947
0.00148236
0.00163388
0.00181945
0.00204063
0.00229131
0.00256974
0.000207329
0.000328842
0.000359074
0.000514266
0.000663107
0.000785681
0.000879732
0.000957383
0.0010321
0.00111405
0.00120703
0.00131524
0.00144344
0.00159554
0.00177443
0.00197795
0.00219995
0.00244106
0.000204395
0.000285817
0.00027352
0.000414927
0.000560856
0.000686538
0.000787136
0.000872897
0.000956041
0.00104622
0.00114651
0.00126032
0.00139097
0.00154081
0.00171028
0.00189506
0.0020898
0.0022997
0.000195456
0.000236822
0.000199299
0.000333424
0.000477646
0.000603604
0.000707343
0.00079813
0.000886935
0.000982942
0.00108801
0.00120501
0.0013356
0.00148134
0.00164073
0.00180939
0.00198192
0.00217129
0.00019318
0.000199275
0.000136954
0.000268165
0.000405026
0.000525777
0.000629267
0.00072295
0.000816072
0.000916321
0.00102501
0.00114375
0.00127346
0.00141435
0.00156417
0.0017189
0.00187392
0.00204981
0.000190298
0.000153183
5.40472e-05
0.000183064
0.000319422
0.000440101
0.000545611
0.000641912
0.000737503
0.000839467
0.000948541
0.00106558
0.00119086
0.00132269
0.00145937
0.00159716
0.00173291
0.00189126
0.000185979
0.000135779
-6.66304e-06
0.000101922
0.000231608
0.000350947
0.000457138
0.000553638
0.000649411
0.000750365
0.000856592
0.000968934
0.00108577
0.00120591
0.00132702
0.00144582
0.0015607
0.00169448
0.000172367
0.000133645
-3.33403e-05
4.18422e-05
0.000151221
0.000260881
0.000362936
0.000456376
0.000549247
0.000645732
0.000745801
0.000848588
0.000952362
0.00105616
0.00115774
0.00125433
0.00134553
0.00145299
0.000143574
0.000130959
-2.73306e-05
1.41768e-05
9.3537e-05
0.000181844
0.000269944
0.000353531
0.000437551
0.000523363
0.000610715
0.000697781
0.000783181
0.0008654
0.000943338
0.00101494
0.00108124
0.0011604
9.32705e-05
0.000110875
2.97768e-06
2.20113e-05
6.96908e-05
0.000128284
0.00019154
0.000254767
0.000318924
0.000383683
0.000448127
0.000511014
0.000571218
0.000627518
0.000678774
0.000723869
0.000764564
0.000814831
1.6799e-05
4.90543e-05
4.30846e-05
4.99696e-05
6.48551e-05
8.71812e-05
0.000115782
0.000147596
0.000181036
0.00021518
0.000249071
0.000281444
0.00031147
0.00033831
0.000361217
0.000379209
0.000393982
0.00041194
-4.98094e-05
-3.25394e-05
3.72488e-05
3.36089e-05
2.38469e-05
1.8043e-05
1.86542e-05
2.44534e-05
3.33898e-05
4.36947e-05
5.41068e-05
6.36664e-05
7.14385e-05
7.67561e-05
7.89302e-05
7.71969e-05
7.31982e-05
6.72379e-05
-8.88602e-05
-8.08576e-05
8.64863e-06
-1.29493e-05
-4.33104e-05
-6.89703e-05
-8.65545e-05
-9.69103e-05
-0.000102733
-0.000106616
-0.00010989
-0.000113579
-0.000118544
-0.000125533
-0.000134923
-0.00014707
-0.000161111
-0.000178985
-0.000116137
-0.000119077
-3.50901e-05
-8.15804e-05
-0.000132771
-0.000175099
-0.000205868
-0.000226805
-0.000241989
-0.000254864
-0.000266732
-0.000278451
-0.000290739
-0.000304432
-0.000320087
-0.000337651
-0.000356871
-0.000381244
-0.000133331
-0.000151696
-9.3785e-05
-0.000168909
-0.00024014
-0.000296263
-0.00033515
-0.000361244
-0.000380555
-0.00039747
-0.000412978
-0.000427927
-0.00044296
-0.000459102
-0.000476896
-0.000496019
-0.000516457
-0.000544481
-0.000141118
-0.000193883
-0.000174479
-0.000269511
-0.000355497
-0.000423704
-0.00046915
-0.000497768
-0.000518094
-0.000535466
-0.000550629
-0.000564735
-0.000578669
-0.000593432
-0.000609476
-0.000626974
-0.000645493
-0.000673287
-0.000126906
-0.000264385
-0.000305946
-0.000403659
-0.00048398
-0.000550716
-0.000596279
-0.000625558
-0.00064645
-0.000663404
-0.000677166
-0.000689155
-0.000700297
-0.000711735
-0.000723907
-0.000737086
-0.000750826
-0.000774261
-4.33364e-05
-0.000282268
-0.000442249
-0.000584007
-0.000663585
-0.000709183
-0.00073199
-0.000745505
-0.000756974
-0.000766762
-0.000774891
-0.000782336
-0.000788875
-0.000795729
-0.000803307
-0.000811108
-0.000819628
-0.00083863
1.03228e-05
-0.000114981
-0.000319911
-0.000612977
-0.00081898
-0.000917264
-0.000945319
-0.00094619
-0.000939453
-0.00092902
-0.000918397
-0.000908309
-0.000897841
-0.000889458
-0.000882855
-0.000876733
-0.000873082
-0.000878988
-0.000730906
-0.000465584
4.25719e-05
4.02117e-05
-0.000191845
-0.000411582
-0.000561147
-0.000660857
-0.000727738
-0.000769956
-0.000795939
-0.00081065
-0.000816663
-0.000818616
-0.00081808
-0.000814644
-0.000812368
-0.000819505
-0.00426847
-0.00672314
-0.00574444
-0.00433167
-0.00326016
-0.00251098
-0.00198242
-0.00161231
-0.00135098
-0.00116137
-0.0010189
-0.00090772
-0.000819855
-0.000748265
-0.000688544
-0.000638649
-0.00059806
-0.000582083
0.0160856
0.0142906
0.00901539
0.00520792
0.00289341
0.00155898
0.000800131
0.000365843
0.000114117
-3.55436e-05
-0.000124314
-0.000177907
-0.000211814
-0.000232366
-0.000245587
-0.000253934
-0.000258821
-0.000284372
-0.00120782
-0.00157101
-0.00142749
-0.00113578
-0.000807566
-0.000465374
-0.000117249
0.000236511
0.000530742
0.000758642
0.000961987
0.00112578
0.00121819
0.00124991
0.00129418
0.00133215
0.00136996
0.00140793
0.00146572
0.00157687
0.00174128
0.00186629
0.00189693
0.00196421
0.00201363
0.00205041
0.00207586
0.00209538
0.00210505
0.00209359
0.00204432
0.00198438
0.00191214
0.00181955
0.00172447
0.00162146
0.00151761
0.00142079
0.0013317
0.00124534
0.00116147
0.00108193
0.0010056
0.000935296
0.000868039
0.000805635
0.000746277
0.000692325
0.000640289
0.000592625
0.000546513
0.000504404
0.000462181
0.000423475
0.000385078
0.000349567
0.000313384
0.000280657
0.000247119
0.000215188
0.000182792
0.000152414
0.000120116
9.0084e-05
5.94266e-05
3.11279e-05
5.06471e-07
-2.74976e-05
-5.71018e-05
-8.50563e-05
-0.000114715
-0.000142182
-0.000171639
-0.000199462
-0.000229176
-0.000257182
-0.000287389
-0.000315727
-0.000346225
-0.000374271
-0.000403742
-0.000431982
-0.000461047
-0.000488298
-0.00051677
-0.000543385
-0.000571399
-0.000598386
-0.000625266
-0.000650512
-0.000673744
-0.000695883
-0.000717541
-0.000738307
-0.000757883
-0.000777128
-0.000795326
-0.000812587
-0.000828506
-0.000844033
-0.000858861
-0.000872357
-0.000884562
-0.000895929
-0.000907099
-0.000916506
-0.000926292
-0.000935164
-0.000942857
-0.000950235
-0.000957311
-0.000961752
-0.000965925
-0.000969772
-0.00097189
-0.000972064
-0.000973621
-0.00096364
-0.000954715
-0.000953507
-0.000950626
-0.000948226
-0.000932963
-0.00091634
-0.000920539
-0.000914631
-0.000902789
-0.00090269
-0.000874862
-0.000848972
-0.000845133
-0.000840806
-0.000827449
-0.000803399
-0.000788828
-0.000791706
-0.000795503
-0.000775703
-0.00075553
-0.000745162
-0.000728919
-0.000705982
-0.000693106
-0.000685365
-0.0006723
-0.00066946
-0.000636795
-0.000605233
-0.000604027
-0.000608948
-0.000610482
-0.000596672
-0.000567547
-0.00054575
-0.000535484
-0.000516225
-0.000507339
-0.000494623
-0.000486031
-0.000474499
-0.000469073
-0.000464366
-0.000440401
-0.000427678
-0.000415809
-0.000393865
-0.000383029
-0.000373495
-0.000354766
-0.000343081
-0.000337767
-0.000319922
-0.000297457
-0.000274339
-0.000236798
-0.000191164
-0.000130256
-2.03951e-05
0.000270944
0.0007138
-0.003501
-0.00328092
-0.0022382
-0.00122414
-0.000304008
0.000519581
0.0012504
0.00188855
0.00243501
0.00289522
0.00326923
0.00356955
0.003807
0.00399847
0.00415527
0.00429601
0.00442979
0.00457237
0.00471717
0.00486757
0.0050237
0.00516281
0.00525654
0.00531377
0.0053343
0.00531589
0.00526052
0.00516808
0.00504083
0.00488272
0.00469804
0.00449431
0.00427796
0.00405396
0.00382765
0.00360308
0.00338325
0.00317018
0.00296482
0.00276906
0.00258345
0.00240826
0.00224216
0.00208641
0.00194017
0.00180352
0.00167428
0.00155321
0.00143857
0.00133095
0.00122876
0.00113265
0.00103957
0.000951218
0.000865567
0.000782874
0.000701864
0.000624173
0.000548282
0.000474794
0.000401867
0.000330777
0.000259648
0.000190662
0.000122219
5.56512e-05
-1.12003e-05
-7.62756e-05
-0.000141981
-0.000206228
-0.00027085
-0.000334042
-0.00039822
-0.000460776
-0.000523385
-0.000584984
-0.000647572
-0.000708771
-0.000770594
-0.000830296
-0.000890351
-0.000948492
-0.00100671
-0.00106297
-0.00111932
-0.00117317
-0.00122657
-0.00127863
-0.00132922
-0.00137738
-0.00142254
-0.0014651
-0.0015056
-0.00154372
-0.00157988
-0.00161441
-0.00164634
-0.00167593
-0.00170369
-0.00172955
-0.00175257
-0.00177286
-0.00179098
-0.00180686
-0.00182092
-0.00183349
-0.00184382
-0.00185243
-0.0018601
-0.00186535
-0.00186911
-0.00187093
-0.00187083
-0.00186863
-0.00186533
-0.00185929
-0.00185224
-0.00184521
-0.00183445
-0.00182001
-0.00180465
-0.00178912
-0.00177408
-0.00175631
-0.00173496
-0.00171224
-0.00168964
-0.00166759
-0.00164855
-0.00162692
-0.00160333
-0.0015785
-0.00155444
-0.00153096
-0.00150542
-0.00147796
-0.00144973
-0.00142461
-0.00140017
-0.0013766
-0.00135275
-0.00132789
-0.00130134
-0.00127356
-0.00124621
-0.0012189
-0.00119739
-0.00117507
-0.00114775
-0.00111741
-0.00108903
-0.00106455
-0.00104224
-0.0010204
-0.000999385
-0.000976865
-0.000953702
-0.00093176
-0.000908068
-0.000886049
-0.000862195
-0.000839231
-0.00081785
-0.000796483
-0.000777513
-0.00075745
-0.000737778
-0.000716361
-0.00069348
-0.000670858
-0.0006457
-0.000614699
-0.000579284
-0.00053796
-0.0004799
-0.000396438
-0.000264424
-4.54461e-05
0.000399577
0.00118618
-0.00433176
-0.0033202
-0.00171496
-0.000236306
0.00106861
0.00221004
0.00320375
0.00406385
0.00480512
0.00544131
0.00598333
0.00644185
0.00682817
0.00715472
0.00743422
0.00767871
0.00789595
0.00808929
0.00825759
0.00839846
0.00850532
0.00856487
0.00856816
0.00851748
0.00841444
0.00826062
0.00805968
0.00781677
0.00753758
0.00722911
0.00689839
0.00655358
0.00620175
0.00584941
0.00550189
0.00516359
0.00483746
0.00452558
0.00422871
0.00394728
0.00368119
0.00342988
0.00319281
0.00296971
0.00275941
0.00256114
0.00237393
0.00219696
0.00202876
0.001869
0.00171653
0.00157085
0.00143066
0.00129575
0.00116543
0.00103938
0.000916614
0.000796812
0.000679513
0.000565069
0.000452304
0.000341542
0.000232157
0.000124545
1.83179e-05
-8.62566e-05
-0.000190264
-0.000292963
-0.000395071
-0.000495894
-0.00059651
-0.000695959
-0.00079503
-0.00089293
-0.000990048
-0.00108603
-0.00118178
-0.00127651
-0.00137067
-0.00146329
-0.00155504
-0.00164461
-0.00173299
-0.00181903
-0.00190362
-0.0019857
-0.00206599
-0.002144
-0.00221913
-0.00229097
-0.00235902
-0.002423
-0.00248317
-0.00254019
-0.00259418
-0.00264448
-0.00269161
-0.00273525
-0.00277531
-0.00281209
-0.00284517
-0.00287455
-0.0029002
-0.0029222
-0.00294074
-0.00295715
-0.00296995
-0.00297974
-0.00298742
-0.0029916
-0.0029927
-0.00299166
-0.00298738
-0.00297954
-0.00296938
-0.00295655
-0.00294127
-0.00292374
-0.00290273
-0.00288005
-0.00285608
-0.00283029
-0.00280241
-0.00277189
-0.00274009
-0.00270614
-0.0026716
-0.00263834
-0.00260206
-0.00256313
-0.00252405
-0.00248587
-0.00244681
-0.00240618
-0.00236463
-0.00232358
-0.00228473
-0.00224501
-0.00220429
-0.00216462
-0.00212438
-0.00208221
-0.00203927
-0.00199859
-0.0019596
-0.00191831
-0.00187726
-0.00183819
-0.00179899
-0.00175758
-0.0017194
-0.00168528
-0.00164834
-0.00160866
-0.00157277
-0.00153713
-0.00150257
-0.00147001
-0.00143398
-0.00139992
-0.00136781
-0.00133657
-0.00130473
-0.00127316
-0.00124214
-0.00120977
-0.00118111
-0.0011492
-0.00111358
-0.00108053
-0.00104442
-0.000997652
-0.000945786
-0.000883271
-0.000798487
-0.000684863
-0.000508052
-0.000230445
0.000273978
0.00118587
-0.00344722
-0.00178842
2.60856e-05
0.00166654
0.00312071
0.00440035
0.00552036
0.00649755
0.00734772
0.00808482
0.00872079
0.00926632
0.00973178
0.0101264
0.0104585
0.0107355
0.0109618
0.0111378
0.0112625
0.0113338
0.011348
0.0113002
0.0111885
0.0110155
0.0107855
0.0105043
0.010179
0.00981689
0.00942568
0.00901331
0.00858692
0.00815325
0.00771878
0.00728894
0.00686783
0.00645876
0.00606405
0.00568532
0.00532333
0.00497842
0.00465036
0.00433869
0.00404306
0.00376258
0.00349628
0.00324338
0.00300307
0.00277424
0.00255584
0.00234719
0.00214723
0.00195518
0.00177005
0.00159111
0.00141792
0.00125006
0.00108665
0.000927015
0.000770408
0.000617015
0.000466233
0.000317738
0.000171339
2.69304e-05
-0.000115766
-0.000257055
-0.000397105
-0.000535837
-0.000673597
-0.00081032
-0.000946285
-0.00108093
-0.00121451
-0.0013471
-0.0014789
-0.00160947
-0.00173906
-0.00186741
-0.00199436
-0.00211985
-0.00224352
-0.00236478
-0.00248385
-0.00260004
-0.00271352
-0.0028242
-0.00293195
-0.00303615
-0.0031369
-0.00323355
-0.00332557
-0.0034126
-0.00349449
-0.00357203
-0.00364539
-0.00371354
-0.00377745
-0.00383674
-0.00389096
-0.00394024
-0.00398464
-0.00402438
-0.00405915
-0.00408891
-0.00411371
-0.00413494
-0.0041518
-0.00416458
-0.00417359
-0.00417829
-0.00417846
-0.00417548
-0.00416845
-0.00415699
-0.0041413
-0.00412234
-0.00409993
-0.00407438
-0.00404517
-0.00401388
-0.00397974
-0.0039425
-0.00390276
-0.00386033
-0.00381658
-0.00376995
-0.00372147
-0.0036733
-0.00362257
-0.00356979
-0.0035156
-0.00346155
-0.00340645
-0.00335045
-0.00329357
-0.00323694
-0.00318155
-0.00312528
-0.00306888
-0.00301347
-0.00295782
-0.00290023
-0.00284097
-0.00278419
-0.00272998
-0.002673
-0.00261592
-0.00256141
-0.00250825
-0.00245348
-0.00239961
-0.00234995
-0.00229971
-0.00224677
-0.00219682
-0.00214733
-0.00209897
-0.00205369
-0.00200578
-0.00195966
-0.00191501
-0.00187067
-0.0018272
-0.0017845
-0.00174138
-0.00169767
-0.00165665
-0.00161396
-0.00156658
-0.00151913
-0.00146912
-0.00140781
-0.00133807
-0.00125246
-0.0011421
-0.000998702
-0.000781474
-0.000455619
7.87889e-05
0.000969875
-0.00128867
0.000642312
0.00247884
0.00413187
0.00559973
0.00689534
0.00803452
0.00903422
0.00990993
0.0106738
0.0113355
0.0119037
0.0123857
0.0127875
0.0131142
0.0133698
0.0135561
0.0136741
0.0137241
0.0137061
0.0136204
0.0134683
0.0132524
0.0129776
0.0126498
0.0122764
0.0118647
0.0114222
0.0109568
0.0104756
0.00998502
0.00949072
0.00899841
0.00851244
0.00803607
0.00757207
0.00712261
0.00668926
0.00627294
0.00587408
0.00549252
0.00512801
0.00478011
0.00444815
0.00413153
0.00382934
0.0035407
0.00326469
0.00300034
0.0027468
0.00250303
0.00226813
0.0020413
0.00182175
0.00160879
0.00140179
0.00120001
0.00100275
0.000809406
0.000619663
0.000433028
0.000249013
6.74082e-05
-0.000112002
-0.000289496
-0.000465369
-0.000639703
-0.00081263
-0.000984433
-0.00115518
-0.00132489
-0.00149333
-0.00166048
-0.00182638
-0.00199116
-0.00215457
-0.00231668
-0.00247718
-0.00263576
-0.00279237
-0.00294665
-0.00309814
-0.00324654
-0.00339161
-0.0035332
-0.00367113
-0.00380514
-0.0039348
-0.00406012
-0.0041805
-0.00429527
-0.0044043
-0.00450733
-0.00460483
-0.00469669
-0.00478236
-0.00486231
-0.00493654
-0.00500448
-0.00506616
-0.00512174
-0.00517115
-0.00521442
-0.00525147
-0.00528286
-0.00530887
-0.00532953
-0.00534492
-0.00535524
-0.00536017
-0.00535974
-0.0053545
-0.00534431
-0.00532893
-0.0053084
-0.00528343
-0.00525428
-0.00522117
-0.00518404
-0.00514341
-0.00509915
-0.00505119
-0.00499999
-0.00494558
-0.00488904
-0.00482964
-0.00476795
-0.00470528
-0.00464057
-0.0045737
-0.00450492
-0.0044354
-0.00436488
-0.00429366
-0.00422148
-0.00414929
-0.00407772
-0.00400562
-0.00393355
-0.00386197
-0.00379022
-0.00371718
-0.00364289
-0.00357015
-0.00349926
-0.00342757
-0.00335605
-0.00328605
-0.00321743
-0.00314872
-0.00308063
-0.00301527
-0.00295069
-0.00288523
-0.00282149
-0.00275852
-0.00269698
-0.00263785
-0.0025781
-0.00251992
-0.00246301
-0.0024063
-0.00235102
-0.0022969
-0.00224243
-0.00218794
-0.00213425
-0.00208013
-0.00202195
-0.00196053
-0.00189578
-0.00182112
-0.00173491
-0.00162961
-0.00149775
-0.00132722
-0.00108123
-0.000726239
-0.000185078
0.000647795
0.00163945
0.00363132
0.0053915
0.00695831
0.00834539
0.00956837
0.0106448
0.0115913
0.0124218
0.0131462
0.0137718
0.0143047
0.0147494
0.015109
0.0153866
0.0155846
0.0157047
0.0157487
0.0157185
0.0156164
0.0154452
0.0152087
0.0149121
0.0145612
0.0141626
0.0137236
0.0132507
0.0127514
0.0122326
0.0117008
0.0111617
0.0106205
0.0100821
0.00955023
0.0090279
0.00851796
0.00802241
0.00754257
0.00707956
0.00663387
0.00620559
0.00579462
0.0054007
0.00502326
0.00466178
0.00431544
0.00398341
0.00366488
0.00335887
0.00306451
0.00278088
0.00250702
0.00224207
0.00198522
0.00173569
0.00149271
0.00125555
0.00102351
0.00079599
0.000572461
0.00035241
0.000135336
-7.91113e-05
-0.000291243
-0.000501345
-0.000709656
-0.000916322
-0.00112156
-0.00132555
-0.00152835
-0.0017299
-0.00193014
-0.00212905
-0.00232657
-0.00252268
-0.00271724
-0.00291007
-0.00310085
-0.00328932
-0.00347533
-0.00365855
-0.0038385
-0.00401475
-0.004187
-0.00435507
-0.00451879
-0.00467766
-0.00483142
-0.00497982
-0.00512233
-0.00525857
-0.00538824
-0.00551102
-0.00562705
-0.00573612
-0.00583804
-0.005933
-0.00602101
-0.00610157
-0.00617464
-0.00624042
-0.00629866
-0.00634965
-0.00639323
-0.00643018
-0.00646043
-0.00648429
-0.00650151
-0.00651254
-0.00651707
-0.00651543
-0.0065076
-0.00649393
-0.00647413
-0.00644865
-0.00641762
-0.00638149
-0.00634061
-0.0062951
-0.00624504
-0.00619074
-0.00613195
-0.00606938
-0.00600321
-0.00593425
-0.00586219
-0.00578752
-0.00571095
-0.00563232
-0.0055512
-0.0054683
-0.00538405
-0.00529866
-0.00521246
-0.00512525
-0.00503772
-0.00495062
-0.00486317
-0.00477567
-0.00468833
-0.00460084
-0.00451266
-0.00442389
-0.00433607
-0.00424948
-0.00416313
-0.00407728
-0.00399251
-0.00390909
-0.00382625
-0.00374438
-0.00366449
-0.00358574
-0.00350746
-0.00343067
-0.00335484
-0.00328069
-0.00320855
-0.00313689
-0.00306677
-0.0029981
-0.00293005
-0.00286347
-0.00279805
-0.00273272
-0.00266745
-0.00260232
-0.00253665
-0.00246763
-0.00239422
-0.00231627
-0.00222858
-0.00212764
-0.00200628
-0.00185606
-0.00166342
-0.00139776
-0.00102748
-0.000494698
0.000274567
0.0048785
0.00689113
0.00851406
0.00992677
0.011169
0.012262
0.013223
0.0140665
0.014804
0.0154434
0.0159899
0.0164473
0.0168186
0.0171057
0.0173103
0.0174343
0.0174796
0.0174489
0.0173446
0.0171696
0.0169282
0.0166254
0.0162665
0.0158577
0.0154053
0.0149162
0.0143965
0.013853
0.0132921
0.0127199
0.0121414
0.0115614
0.0109843
0.0104137
0.00985255
0.00930337
0.00876801
0.00824797
0.00774453
0.00725813
0.00678908
0.00633748
0.00590317
0.00548565
0.00508453
0.00469912
0.00432855
0.00397206
0.00362878
0.00329784
0.0029783
0.00266922
0.00236973
0.00207898
0.0017961
0.00152028
0.00125072
0.000986768
0.000727765
0.000473036
0.00022197
-2.58466e-05
-0.000270846
-0.000513487
-0.000754009
-0.000992624
-0.00122959
-0.00146513
-0.0016993
-0.00193219
-0.00216375
-0.00239391
-0.00262269
-0.00285002
-0.00307568
-0.00329944
-0.00352109
-0.00374036
-0.00395696
-0.00417064
-0.00438096
-0.00458751
-0.00478995
-0.00498778
-0.00518073
-0.00536856
-0.00555075
-0.00572693
-0.00589681
-0.00606
-0.00621621
-0.00636492
-0.00650584
-0.00663877
-0.00676367
-0.00688049
-0.00698928
-0.00708981
-0.00718176
-0.00726506
-0.00733973
-0.00740582
-0.00746348
-0.00751298
-0.00755444
-0.00758823
-0.00761437
-0.00763282
-0.00764384
-0.00764749
-0.00764379
-0.00763306
-0.00761546
-0.007591
-0.00755993
-0.00752272
-0.00747949
-0.00743054
-0.00737612
-0.00731658
-0.00725203
-0.0071826
-0.00710875
-0.00703087
-0.00694963
-0.00686511
-0.00677749
-0.00668735
-0.00659489
-0.00649994
-0.00640309
-0.00630475
-0.00620486
-0.00610386
-0.00600192
-0.00589954
-0.00579737
-0.00569498
-0.00559233
-0.00548986
-0.00538738
-0.00528448
-0.00518139
-0.00507902
-0.00497765
-0.00487687
-0.00477686
-0.00467789
-0.00458036
-0.00448383
-0.00438844
-0.00429477
-0.00420257
-0.00411157
-0.0040221
-0.00393405
-0.0038477
-0.00376321
-0.00367988
-0.00359816
-0.00351818
-0.00343926
-0.00336184
-0.00328568
-0.00320986
-0.00313428
-0.00305848
-0.00298177
-0.00290215
-0.00281809
-0.00272849
-0.00262873
-0.00251473
-0.0023797
-0.00221428
-0.00200509
-0.00172671
-0.00135106
-0.000834903
-0.000127361
0.00823363
0.0101895
0.0116305
0.0128532
0.0139186
0.0148504
0.0156661
0.016378
0.0169951
0.0175238
0.0179675
0.0183285
0.0186093
0.0188104
0.0189332
0.0189791
0.01895
0.0188485
0.0186773
0.0184394
0.0181389
0.0177807
0.0173704
0.0169141
0.0164176
0.0158871
0.0153284
0.014748
0.0141519
0.0135455
0.0129333
0.0123201
0.0117099
0.011106
0.0105113
0.00992821
0.00935862
0.00880418
0.00826607
0.00774463
0.00724045
0.00675381
0.00628456
0.00583234
0.00539686
0.00497735
0.00457306
0.00418329
0.00380721
0.00344391
0.0030925
0.00275205
0.00242168
0.00210046
0.00178749
0.00148195
0.00118301
0.000890007
0.000602141
0.000318723
3.91548e-05
-0.000237002
-0.000510323
-0.000781214
-0.00104993
-0.00131677
-0.00158198
-0.00184569
-0.00210801
-0.00236903
-0.00262869
-0.00288691
-0.00314364
-0.00339873
-0.00365195
-0.003903
-0.00415163
-0.0043976
-0.00464056
-0.00487999
-0.0051155
-0.00534682
-0.00557347
-0.005795
-0.00601109
-0.00622125
-0.006425
-0.00662188
-0.00681162
-0.00699394
-0.00716828
-0.0073342
-0.00749144
-0.00763977
-0.00777917
-0.00790941
-0.00803042
-0.00814207
-0.00824403
-0.00833622
-0.00841867
-0.00849154
-0.00855475
-0.00860902
-0.00865413
-0.00869054
-0.00871808
-0.00873703
-0.00874732
-0.00874935
-0.0087431
-0.00872908
-0.00870705
-0.00867741
-0.00864031
-0.00859646
-0.00854585
-0.00848868
-0.00842518
-0.00835588
-0.00828087
-0.00820089
-0.00811589
-0.00802643
-0.00793291
-0.00783583
-0.00773541
-0.00763212
-0.00752611
-0.00741765
-0.00730692
-0.00719469
-0.00708078
-0.00696552
-0.0068494
-0.00673271
-0.00661581
-0.00649876
-0.00638147
-0.00626446
-0.00614759
-0.00603043
-0.00591335
-0.00579689
-0.00568132
-0.00556661
-0.00545295
-0.00534045
-0.00522935
-0.00511959
-0.00501112
-0.00490441
-0.00479954
-0.00469605
-0.00459418
-0.0044944
-0.00439642
-0.00430013
-0.00420548
-0.00411262
-0.00402184
-0.00393252
-0.00384472
-0.00375841
-0.00367258
-0.00358718
-0.0035015
-0.00341457
-0.00332495
-0.00323101
-0.00313096
-0.00302053
-0.00289529
-0.00274853
-0.00257106
-0.00235035
-0.00206486
-0.00169071
-0.00119587
-0.000545724
0.0114464
0.0133317
0.01459
0.0156158
0.0164913
0.0172467
0.0179024
0.0184698
0.0189552
0.019363
0.0196951
0.0199534
0.020139
0.0202511
0.0202911
0.0202608
0.0201607
0.019993
0.0197598
0.0194643
0.0191106
0.0187034
0.0182481
0.0177501
0.0172145
0.0166475
0.0160547
0.0154422
0.0148151
0.0141787
0.0135376
0.0128958
0.0122572
0.0116251
0.011002
0.0103904
0.00979207
0.00920885
0.00864154
0.00809062
0.00755705
0.00704098
0.00654232
0.00606078
0.00559606
0.00514742
0.00471423
0.00429585
0.00389139
0.00350001
0.00312082
0.00275288
0.00239527
0.00204703
0.00170728
0.00137516
0.00104985
0.000730573
0.000416471
0.000106966
-0.000198586
-0.000500755
-0.000800119
-0.00109699
-0.00139172
-0.00168462
-0.00197597
-0.00226585
-0.00255431
-0.00284147
-0.00312726
-0.00341153
-0.00369411
-0.00397482
-0.00425354
-0.00452992
-0.00480357
-0.00507421
-0.00534151
-0.00560481
-0.0058636
-0.0061176
-0.00636644
-0.00660964
-0.00684674
-0.00707724
-0.00730065
-0.00751641
-0.0077242
-0.00792369
-0.00811427
-0.00829557
-0.00846731
-0.00862932
-0.00878145
-0.00892348
-0.00905509
-0.00917624
-0.00928677
-0.00938645
-0.0094754
-0.00955362
-0.00962144
-0.00967915
-0.0097269
-0.00976484
-0.00979301
-0.0098115
-0.00982047
-0.00982008
-0.00981075
-0.00979261
-0.00976566
-0.00973024
-0.00968683
-0.00963591
-0.00957752
-0.0095117
-0.009439
-0.00935975
-0.00927431
-0.00918351
-0.00908743
-0.00898648
-0.00888088
-0.00877121
-0.00865828
-0.00854215
-0.00842284
-0.00830093
-0.00817674
-0.0080508
-0.00792324
-0.00779427
-0.00766441
-0.00753387
-0.00740287
-0.00727174
-0.00714037
-0.0070092
-0.00687837
-0.0067475
-0.00661694
-0.00648703
-0.0063579
-0.00622973
-0.00610287
-0.00597744
-0.00585344
-0.00573097
-0.00561002
-0.00549098
-0.00537397
-0.0052586
-0.005145
-0.00503374
-0.00492456
-0.00481713
-0.00471177
-0.0046084
-0.00450724
-0.004408
-0.00431034
-0.00421446
-0.00411927
-0.00402459
-0.00392977
-0.00383359
-0.0037349
-0.00363189
-0.00352243
-0.00340264
-0.00326794
-0.00311165
-0.00292525
-0.00269699
-0.00240884
-0.00204105
-0.00156997
-0.000972319
0.0144069
0.0162089
0.0172866
0.0181193
0.0188085
0.0193903
0.0198858
0.0203066
0.0206586
0.0209448
0.0211659
0.0213223
0.0214133
0.0214384
0.0213987
0.0212947
0.0211264
0.0208956
0.0206044
0.0202553
0.0198526
0.0194004
0.0189033
0.0183665
0.017795
0.0171951
0.0165724
0.0159317
0.015278
0.0146162
0.0139508
0.013285
0.0126231
0.011968
0.0113218
0.0106872
0.0100658
0.0094592
0.00886835
0.00829388
0.00773664
0.00719671
0.00667409
0.0061685
0.00567968
0.00520695
0.00474971
0.00430734
0.00387897
0.00346376
0.00306079
0.00266914
0.00228787
0.00191606
0.00155279
0.00119722
0.000848421
0.000505599
0.000167998
-0.000165016
-0.000494186
-0.000820081
-0.00114316
-0.00146381
-0.00178242
-0.00209925
-0.0024146
-0.00272854
-0.00304114
-0.00335238
-0.00366214
-0.00397026
-0.00427656
-0.00458088
-0.00488292
-0.00518237
-0.00547896
-0.00577221
-0.00606157
-0.00634645
-0.0066264
-0.00690104
-0.00716999
-0.0074328
-0.00768876
-0.0079373
-0.00817806
-0.00841056
-0.00863429
-0.00884879
-0.00905362
-0.00924839
-0.00943277
-0.00960644
-0.00976927
-0.00992117
-0.0100617
-0.0101906
-0.010308
-0.0104136
-0.0105075
-0.0105897
-0.0106609
-0.0107209
-0.0107701
-0.0108085
-0.0108363
-0.0108534
-0.0108602
-0.0108567
-0.0108434
-0.0108203
-0.0107878
-0.0107462
-0.0106961
-0.0106376
-0.0105709
-0.0104962
-0.010414
-0.0103246
-0.0102288
-0.010127
-0.0100198
-0.00990729
-0.00978987
-0.00966798
-0.00954267
-0.00941374
-0.00928143
-0.00914649
-0.00900932
-0.00886995
-0.00872901
-0.00858683
-0.0084437
-0.00829978
-0.0081554
-0.00801084
-0.0078659
-0.00772118
-0.0075769
-0.00743286
-0.00728938
-0.00714664
-0.00700459
-0.00686365
-0.00672417
-0.00658635
-0.00645007
-0.00631545
-0.00618266
-0.006052
-0.00592343
-0.00579683
-0.0056723
-0.00555
-0.00542997
-0.00531215
-0.00519688
-0.00508369
-0.00497258
-0.00486391
-0.00475706
-0.00465215
-0.00454828
-0.00444505
-0.0043418
-0.0042373
-0.00413056
-0.00401945
-0.00390169
-0.00377393
-0.0036315
-0.00346798
-0.00327537
-0.00304281
-0.00275561
-0.00239771
-0.00195167
-0.00140159
0.0170161
0.0187198
0.01964
0.0202973
0.0208164
0.0212369
0.0215816
0.0218633
0.0220879
0.0222583
0.0223726
0.0224303
0.0224309
0.0223735
0.0222573
0.0220823
0.0218488
0.0215576
0.0212098
0.0208087
0.0203587
0.0198639
0.0193277
0.0187556
0.0181527
0.0175244
0.0168754
0.0162103
0.0155343
0.0148521
0.0141672
0.0134831
0.0128034
0.0121307
0.0114672
0.0108153
0.0101767
0.00955265
0.0089442
0.00835204
0.00777688
0.00721872
0.00667768
0.00615344
0.00564573
0.00515391
0.00467741
0.00421555
0.00376758
0.00333263
0.00290978
0.0024981
0.00209669
0.00170462
0.00132098
0.000944868
0.000575379
0.000211757
-0.000146724
-0.000500823
-0.000851272
-0.00119855
-0.0015431
-0.00188534
-0.00222569
-0.00256438
-0.00290161
-0.00323749
-0.00357203
-0.0039051
-0.00423661
-0.00456631
-0.00489414
-0.00521987
-0.00554298
-0.00586324
-0.00618043
-0.00649385
-0.00680277
-0.00710676
-0.00740563
-0.00769866
-0.00798534
-0.00826514
-0.00853739
-0.0088016
-0.00905743
-0.0093044
-0.00954178
-0.00976894
-0.0099856
-0.0101915
-0.0103864
-0.0105696
-0.0107411
-0.0109008
-0.011048
-0.011183
-0.0113054
-0.0114153
-0.0115127
-0.0115976
-0.0116705
-0.0117316
-0.0117808
-0.0118185
-0.0118446
-0.0118594
-0.011863
-0.0118556
-0.0118375
-0.0118088
-0.01177
-0.0117218
-0.0116645
-0.0115979
-0.0115224
-0.0114385
-0.0113466
-0.011247
-0.0111406
-0.0110279
-0.0109095
-0.0107854
-0.0106562
-0.0105226
-0.0103848
-0.0102433
-0.0100985
-0.009951
-0.00980109
-0.0096488
-0.00949494
-0.00934004
-0.00918411
-0.00902736
-0.00887017
-0.00871276
-0.00855499
-0.00839746
-0.00824036
-0.0080837
-0.00792786
-0.00777287
-0.00761858
-0.00746565
-0.00731444
-0.00716484
-0.00701682
-0.00687073
-0.00672674
-0.0065851
-0.00644574
-0.00630856
-0.00617367
-0.00604099
-0.00591083
-0.00578334
-0.00565869
-0.00553636
-0.00541613
-0.00529867
-0.00518322
-0.00506996
-0.00495809
-0.00484709
-0.00473623
-0.00462431
-0.00451049
-0.00439237
-0.00426758
-0.00413324
-0.00398479
-0.0038162
-0.00361983
-0.00338588
-0.00310268
-0.0027571
-0.00233639
-0.00182963
0.0191587
0.0208122