/*--------------------------------*- C++ -*----------------------------------*\
  =========                 |
  \\      /  F ield         | OpenFOAM: The Open Source CFD Toolbox
   \\    /   O peration     | Website:  https://openfoam.org
    \\  /    A nd           | Version:  8
     \\/     M anipulation  |
\*---------------------------------------------------------------------------*/
FoamFile
{
    version     2.0;
    format      ascii;
    class       volScalarField;
    location    "200";
    object      vpod_2;
}
// * * * * * * * * * * * * * * * * * * * * * * * * * * * * * * * * * * * * * //

dimensions      [0 1 -1 0 0 0 0];

internalField   nonuniform List<scalar> 
12225
(
0.0140628
0.010252
0.00517212
0.00235529
0.000933913
0.000234291
-0.000101004
-0.000262744
-0.000314034
-0.00028839
-0.000246627
-0.000192901
-9.98159e-05
6.56778e-05
-0.000103826
0.000610263
-0.00519637
0.00276026
-0.0037703
-0.00530447
-0.00447682
-0.00303478
-0.0020826
-0.00154487
-0.00127868
-0.00116352
-0.00109416
-0.000975288
-0.000855015
-0.000703774
-0.000463399
-0.000207793
0.000704763
0.00215725
0.0038745
0.00580297
-0.000827148
-0.00212855
-0.00239318
-0.00187612
-0.00165659
-0.00155879
-0.0015157
-0.00149042
-0.00143332
-0.00129128
-0.00110887
-0.000860311
-0.000529661
-4.82035e-05
0.000683452
0.00227065
0.00283318
0.00668924
-4.21095e-05
-0.00204189
-0.00309427
-0.00266047
-0.00235462
-0.00215317
-0.00202431
-0.00193121
-0.00181538
-0.00162011
-0.00135207
-0.000999685
-0.000548705
9.39397e-05
0.00107537
0.00274986
0.0044833
0.00808172
0.000182633
-0.00234592
-0.00387947
-0.00335242
-0.00291095
-0.00261705
-0.00242614
-0.00228703
-0.00213575
-0.00189649
-0.00155719
-0.00111551
-0.000551861
0.000236519
0.00138351
0.00319149
0.00546403
0.00910496
0.000338638
-0.00256076
-0.00456321
-0.00401921
-0.003491
-0.00311493
-0.00285792
-0.00266733
-0.00247071
-0.00217526
-0.00176144
-0.00123111
-0.00055538
0.000367275
0.00165907
0.00357284
0.00604841
0.00956744
0.000528968
-0.002642
-0.00520543
-0.00470644
-0.00411308
-0.0036528
-0.00332222
-0.00307369
-0.00281545
-0.00244959
-0.00195965
-0.00134054
-0.000552927
0.000493791
0.00190143
0.00385616
0.00634413
0.00967463
0.000727191
-0.00266623
-0.00577873
-0.00537405
-0.0047413
-0.00420961
-0.00381156
-0.00349728
-0.00317272
-0.00273452
-0.00216694
-0.00145172
-0.000550525
0.00060091
0.00209101
0.00404386
0.00645297
0.00955477
0.000942141
-0.00263845
-0.00622823
-0.00597629
-0.00534477
-0.00476755
-0.00431036
-0.00393196
-0.00354472
-0.0030325
-0.00237772
-0.0015609
-0.000556882
0.000675985
0.00221789
0.00413573
0.00641291
0.00924979
0.0011932
-0.0024449
-0.00653544
-0.00650141
-0.00591234
-0.00531414
-0.00481307
-0.0043783
-0.00392105
-0.00332531
-0.00257652
-0.00165897
-0.000565268
0.000742396
0.00232478
0.00418763
0.00631507
0.00890882
0.0015042
-0.00223421
-0.00686706
-0.00703213
-0.00648949
-0.00587643
-0.0053311
-0.0048295
-0.00428805
-0.00360137
-0.00276344
-0.00176203
-0.000591488
0.000769583
0.00235127
0.00412196
0.00606883
0.00843483
0.00165896
-0.00231488
-0.00711527
-0.00737701
-0.00686224
-0.00624423
-0.00566443
-0.0051096
-0.00450691
-0.00374513
-0.00283297
-0.00175958
-0.000530503
0.000864836
0.00243559
0.00414123
0.00594687
0.00821122
0.00194342
-0.00227229
-0.00722334
-0.00742016
-0.00699777
-0.00644714
-0.00587296
-0.00528804
-0.00462997
-0.00380028
-0.00281818
-0.00168184
-0.000398044
0.00103019
0.00259833
0.00425976
0.00598675
0.00825066
0.00222299
-0.0024051
-0.00766529
-0.00766362
-0.00713599
-0.00652002
-0.00587059
-0.00522507
-0.00451286
-0.00363432
-0.0026124
-0.00144562
-0.000141643
0.00127296
0.00279119
0.00437155
0.00599369
0.00818426
0.00246117
-0.00187881
-0.00758503
-0.00769161
-0.00710837
-0.00640446
-0.00565795
-0.00493437
-0.00414389
-0.0032109
-0.00215335
-0.000959227
0.000335149
0.00171505
0.00316117
0.00463988
0.00611897
0.00806505
0.00248569
-0.000987206
-0.00671856
-0.00711191
-0.00663085
-0.00592397
-0.00512812
-0.00434423
-0.00348818
-0.00251295
-0.00142612
-0.000242992
0.00100044
0.00229472
0.00359577
0.00487807
0.00614662
0.00782014
0.00218818
-4.69668e-05
-0.00502089
-0.00561734
-0.00530974
-0.00471106
-0.00397827
-0.00321733
-0.00236656
-0.0014223
-0.000393067
0.000685866
0.0017906
0.00289801
0.00398607
0.00503266
0.00606781
0.00742543
0.00145544
0.000624843
-0.00265763
-0.00318613
-0.00303517
-0.00260858
-0.00202876
-0.00137654
-0.00064123
0.000149671
0.000974563
0.00183004
0.00269716
0.00353983
0.00435016
0.00512233
0.00589045
0.00689505
0.000273439
0.000591025
0.000218172
0.000110575
0.00017514
0.000383211
0.000713316
0.00111261
0.00156434
0.00205037
0.00256819
0.00310271
0.00363252
0.00414254
0.00462967
0.00507989
0.00553423
0.0060928
-0.000679439
0.000144734
0.00213731
0.00248808
0.00260058
0.00271083
0.00286382
0.00305832
0.00328217
0.00353171
0.00379421
0.00406475
0.00432555
0.0045751
0.00480631
0.00501563
0.0052327
0.00544176
-0.00112041
0.000241581
0.00331085
0.0038114
0.00390883
0.00395344
0.00401156
0.00409281
0.00419146
0.00430393
0.00442061
0.00454019
0.00465259
0.00475453
0.00484504
0.00492201
0.00500296
0.00502806
-0.00133758
0.000533153
0.00416262
0.00463006
0.00465609
0.00462928
0.00461587
0.00461856
0.00463563
0.00465224
0.00466703
0.00467616
0.00468075
0.00467518
0.00466528
0.00464574
0.00463755
0.00454023
-0.00136303
0.000951309
0.0047212
0.00501124
0.00491952
0.00482168
0.00474996
0.00469765
0.00465852
0.0046107
0.00455854
0.00450258
0.00443825
0.00437827
0.004308
0.00423372
0.00417559
0.003979
-0.00123461
0.00138249
0.00492273
0.00495104
0.00473835
0.00458227
0.00447488
0.00439416
0.00432273
0.00424188
0.00415821
0.00408029
0.00399744
0.00391408
0.00382801
0.0037379
0.00364995
0.00339136
-0.00101164
0.00169494
0.0047323
0.00449991
0.00420734
0.00403244
0.00392732
0.00384721
0.00377704
0.00370167
0.00362368
0.00354692
0.00347052
0.00339265
0.00331475
0.00323178
0.00316261
0.00290282
-0.000762616
0.00178661
0.00421673
0.00383903
0.00354367
0.00338314
0.00329591
0.00322735
0.00315802
0.0030939
0.00303013
0.00296482
0.00290378
0.00283837
0.00276903
0.00270554
0.00265082
0.00239769
-0.000495459
0.00162635
0.00339927
0.00307122
0.0029038
0.00281128
0.00274438
0.00267774
0.00260163
0.00254103
0.00247113
0.00239719
0.00234677
0.00228372
0.00221728
0.00216869
0.00212104
0.00191897
0.00017762
0.00162461
0.00246632
0.00204378
0.001973
0.00198451
0.00198898
0.00197248
0.00192928
0.00188614
0.00183768
0.00177119
0.0017222
0.0016654
0.00160799
0.0015724
0.00154344
0.00135315
0.00294228
0.00486535
0.00475165
0.00349925
0.00267627
0.00217552
0.00186345
0.00165179
0.00151662
0.00140023
0.00130836
0.00124039
0.00117361
0.00112217
0.00108557
0.00106479
0.00106826
0.000955299
-0.0111693
-0.00836607
-0.00443756
-0.00217193
-0.00088411
-0.000170796
0.00020507
0.000414338
0.000551469
0.000600353
0.000633756
0.000646153
0.000613511
0.000597102
0.000592582
0.000583723
0.000607785
0.000569638
-0.00159307
-0.00215271
-0.00192613
-0.00144481
-0.000797238
-0.000162014
0.000349909
0.0008896
0.0012986
0.00160595
0.00186599
0.00205614
0.00216129
0.00226368
0.00234014
0.00241547
0.00252311
0.0026209
0.00267027
0.00264612
0.00252282
0.00243014
0.00245919
0.0023589
0.00223557
0.00207824
0.00190309
0.00169547
0.00147109
0.00125404
0.00108887
0.000925956
0.000775042
0.000653477
0.00053794
0.000438563
0.000349057
0.000256498
0.000160105
6.95306e-05
-1.21929e-05
-8.87896e-05
-0.000160595
-0.000230853
-0.000294868
-0.000357109
-0.000418431
-0.000478724
-0.000536497
-0.000593177
-0.000650726
-0.000705677
-0.00075921
-0.000808524
-0.00085683
-0.000904993
-0.000954956
-0.000999381
-0.00104094
-0.00108096
-0.00112115
-0.00115644
-0.00119141
-0.00122033
-0.00125003
-0.00127298
-0.00129712
-0.00131393
-0.00133108
-0.00134245
-0.00135567
-0.0013637
-0.00137108
-0.00136893
-0.00136842
-0.00136346
-0.00136154
-0.00135083
-0.00134421
-0.00132978
-0.00131351
-0.00129285
-0.00127492
-0.00125364
-0.0012302
-0.00119729
-0.00116623
-0.00113415
-0.00110156
-0.00105965
-0.00101171
-0.000961023
-0.000910623
-0.000860026
-0.000803674
-0.000755123
-0.000702608
-0.000646874
-0.000591743
-0.000531834
-0.000475301
-0.000420025
-0.000357454
-0.000299796
-0.000250665
-0.00018639
-0.00012679
-7.43593e-05
-1.51188e-05
3.6481e-05
8.93177e-05
0.000151303
0.000211202
0.000266162
0.000322068
0.00038062
0.000426186
0.000494706
0.000554394
0.00059237
0.000627995
0.000651576
0.00070889
0.000770358
0.000776662
0.000784632
0.00080601
0.000816269
0.000886757
0.000939969
0.000931116
0.000926562
0.000937065
0.000972091
0.000979815
0.000926349
0.000883646
0.000902719
0.000912064
0.000904536
0.000917039
0.000934276
0.000905001
0.000867942
0.000873394
0.000836476
0.000839279
0.000858168
0.000842534
0.000774731
0.000691372
0.000680505
0.000711512
0.00071023
0.000677834
0.000651034
0.000619831
0.000631061
0.000600906
0.000562912
0.000531632
0.000490151
0.000492464
0.000482158
0.000462197
0.000441983
0.000426476
0.000429309
0.000402332
0.000366012
0.000363654
0.000346681
0.000335853
0.00031075
0.000282078
0.000327279
0.000289319
0.00019595
8.94421e-05
-0.000233595
-0.00468877
-0.00412324
-0.00269251
-0.00136471
-9.23348e-05
0.00111609
0.00218285
0.00309564
0.00385568
0.00447484
0.00495564
0.00530865
0.00555413
0.00572705
0.0058372
0.00590316
0.00593902
0.00594538
0.00587995
0.00571126
0.00543439
0.00508906
0.00472629
0.00432838
0.0039024
0.00346644
0.00303072
0.00260938
0.00220727
0.00183201
0.00149325
0.00118764
0.000905811
0.000648857
0.000413841
0.000202718
9.83581e-06
-0.000171428
-0.000340993
-0.000501243
-0.000646892
-0.00078777
-0.000925917
-0.00106285
-0.00119022
-0.00131521
-0.00143794
-0.00155414
-0.0016684
-0.00177949
-0.00188188
-0.00197643
-0.0020693
-0.00215757
-0.00224482
-0.00233283
-0.0024202
-0.00249913
-0.00256956
-0.00263483
-0.00269524
-0.0027528
-0.00280749
-0.00285562
-0.00289687
-0.00292571
-0.00295104
-0.0029707
-0.00298763
-0.00299345
-0.00299317
-0.00298869
-0.00298435
-0.00297169
-0.00294423
-0.00290869
-0.00287168
-0.00282987
-0.00278706
-0.00272995
-0.00267313
-0.0026066
-0.00253604
-0.00246143
-0.00238826
-0.00230319
-0.00221034
-0.00212283
-0.00202734
-0.00192348
-0.00181323
-0.00169643
-0.00157863
-0.00145381
-0.00133067
-0.00120809
-0.00108153
-0.000951739
-0.000828398
-0.000712219
-0.000592039
-0.000465534
-0.000339019
-0.000216307
-9.62212e-05
7.44437e-06
0.000120325
0.000236092
0.000334988
0.00043693
0.000535203
0.000623117
0.000711174
0.000804884
0.000883348
0.000962658
0.0010403
0.00109439
0.00116257
0.00124557
0.00131362
0.00136049
0.00138508
0.00140306
0.00144398
0.00149564
0.00153592
0.00155221
0.00155959
0.00157534
0.00159094
0.00159467
0.00159793
0.00159853
0.00160063
0.0016067
0.00159647
0.00156821
0.0015428
0.0015061
0.0014765
0.0014543
0.00143595
0.00141884
0.00139351
0.00138581
0.0013579
0.00130153
0.0012594
0.00126586
0.00124453
0.00118319
0.0011429
0.00113306
0.00109803
0.00106399
0.00102435
0.000968956
0.000964294
0.000945193
0.000916283
0.000876225
0.000849756
0.000831232
0.00079954
0.0007873
0.000724791
0.000707382
0.000719479
0.000663646
0.000601362
0.000611475
0.000607311
0.000564585
0.000544714
0.000511411
0.000433099
0.000300872
-4.28537e-05
-0.00081531
-0.00490259
-0.00346272
-0.00109655
0.00105091
0.00292589
0.00454102
0.00588535
0.00696323
0.00780046
0.00844122
0.00890098
0.00918314
0.00931671
0.00933608
0.00926101
0.00910271
0.00887961
0.00858199
0.00818556
0.00769055
0.00713107
0.00653608
0.0059105
0.00527281
0.00464068
0.00402407
0.00343143
0.00287787
0.00236227
0.00189182
0.00147039
0.00109023
0.000738805
0.000420387
0.000124727
-0.000145578
-0.000395915
-0.000631255
-0.00085573
-0.00107182
-0.00127907
-0.00148633
-0.00168618
-0.00187816
-0.00206439
-0.00225011
-0.00243179
-0.00260541
-0.00277642
-0.00294146
-0.00309981
-0.00325219
-0.00340032
-0.00354344
-0.0036824
-0.00381222
-0.00393196
-0.00404278
-0.00414828
-0.00424686
-0.00433605
-0.00441919
-0.00449491
-0.00456088
-0.00461507
-0.00465831
-0.00469494
-0.00472232
-0.0047398
-0.00474337
-0.00473974
-0.00472627
-0.00470471
-0.00467293
-0.00462881
-0.00457449
-0.00451163
-0.00444139
-0.00436324
-0.0042763
-0.00418351
-0.0040757
-0.00396033
-0.00383513
-0.00370359
-0.00356213
-0.00341434
-0.00326582
-0.00310799
-0.00294304
-0.00277152
-0.00258854
-0.00239383
-0.00219696
-0.00200379
-0.00180342
-0.00160377
-0.001404
-0.00120532
-0.00100895
-0.000811808
-0.000615751
-0.000423327
-0.000231354
-4.08e-05
0.000130808
0.000304071
0.000476755
0.000631231
0.000787617
0.000942461
0.00107713
0.00120573
0.00134368
0.00147351
0.0015943
0.00170456
0.00179896
0.00190306
0.002
0.00207603
0.00213618
0.00217827
0.00221838
0.00226466
0.00232587
0.00237354
0.00238032
0.00238926
0.00241189
0.00244119
0.0024498
0.00244883
0.00244371
0.00244043
0.00243713
0.00240476
0.00236296
0.00231925
0.00226143
0.00221161
0.00218596
0.00218312
0.00215524
0.00209035
0.00206747
0.00204866
0.00198201
0.00190782
0.00189383
0.00187077
0.00178148
0.00170575
0.00169095
0.00165471
0.00161317
0.00155955
0.00147488
0.0014516
0.00142576
0.00138443
0.00133444
0.00128686
0.00124713
0.00121167
0.00119787
0.00112102
0.00107845
0.00108649
0.00102183
0.000941482
0.000950052
0.000938804
0.000894868
0.000859478
0.000742452
0.000633954
0.000472235
7.03032e-05
-0.00071316
-0.00293018
-0.000867638
0.00190469
0.00433538
0.006398
0.00810488
0.00945278
0.0104798
0.0112326
0.0117518
0.0120605
0.0121795
0.0121431
0.0119711
0.0116729
0.0112721
0.0107899
0.0102217
0.00957104
0.00886021
0.00811392
0.00734853
0.00657766
0.0058242
0.00510339
0.00442112
0.00378193
0.00318566
0.00263031
0.0021214
0.00165374
0.00121617
0.000808512
0.00043156
7.79026e-05
-0.000256158
-0.000575082
-0.000881314
-0.00117831
-0.00146696
-0.00175074
-0.00203126
-0.0023009
-0.00256511
-0.00282652
-0.00308237
-0.00332962
-0.0035703
-0.00380534
-0.00403258
-0.00425503
-0.00447178
-0.00468116
-0.00488248
-0.00507135
-0.00524352
-0.005402
-0.00555251
-0.00569858
-0.00583374
-0.0059561
-0.00606746
-0.00616759
-0.00625411
-0.00632661
-0.00639043
-0.00644158
-0.00647758
-0.00649956
-0.00650816
-0.0065057
-0.0064855
-0.00644855
-0.00640044
-0.00634456
-0.0062746
-0.00619043
-0.00609323
-0.00598185
-0.00586375
-0.00573434
-0.00558778
-0.00542848
-0.00525314
-0.00506465
-0.00486878
-0.00466516
-0.00445008
-0.00422885
-0.00400135
-0.0037646
-0.00351502
-0.00324724
-0.00297785
-0.00271309
-0.00243611
-0.00216192
-0.0018909
-0.00161539
-0.00133596
-0.0010581
-0.000789229
-0.000529373
-0.000268384
-5.93656e-06
0.000239872
0.000476339
0.000708348
0.000924543
0.00113831
0.00135199
0.00154356
0.00171873
0.00189841
0.00208034
0.00224779
0.00239911
0.00253614
0.00267073
0.00278355
0.00287835
0.00296697
0.00303937
0.00310938
0.00316493
0.00323082
0.00328859
0.00330533
0.00331705
0.00333686
0.00337188
0.00338945
0.00338915
0.00337441
0.00336106
0.00334932
0.00330897
0.0032609
0.00320466
0.003133
0.00306127
0.00301762
0.00301469
0.00298076
0.00288677
0.00283746
0.00281041
0.00273927
0.00264055
0.00259225
0.00256868
0.00247484
0.00236247
0.00231683
0.00227029
0.00222154
0.00216047
0.00205163
0.00199993
0.00195458
0.00190067
0.00184951
0.00178364
0.00171391
0.00166671
0.00163836
0.00155747
0.0014801
0.00146335
0.00141472
0.00133166
0.00131922
0.00129185
0.0012605
0.00120712
0.00101013
0.000872492
0.000684857
0.000242335
-0.000444392
0.000363949
0.00267309
0.00557956
0.00802591
0.0100191
0.011597
0.0127756
0.013611
0.0141663
0.0144775
0.0145727
0.0144801
0.0142299
0.013839
0.0133314
0.0127325
0.0120521
0.0113044
0.0105073
0.00967502
0.00883031
0.00799088
0.00717177
0.00638804
0.00564459
0.00494546
0.00428659
0.00366276
0.00307787
0.00253009
0.0020135
0.00152032
0.00105633
0.000617818
0.000195727
-0.000214087
-0.000613991
-0.00100338
-0.00138138
-0.00174896
-0.00211114
-0.00246807
-0.00281739
-0.00316128
-0.0034971
-0.00382533
-0.00414514
-0.00445586
-0.00475752
-0.00504887
-0.00533191
-0.00560653
-0.00587023
-0.00612168
-0.00635892
-0.00658043
-0.00678762
-0.00698266
-0.00716613
-0.00733575
-0.00749082
-0.00763134
-0.0077568
-0.00786679
-0.00796082
-0.00804113
-0.00810434
-0.00814948
-0.00817848
-0.00819224
-0.00819
-0.00816823
-0.00812665
-0.00806815
-0.00799615
-0.00790745
-0.00780315
-0.00768231
-0.00754313
-0.00739077
-0.00722373
-0.00703872
-0.00683472
-0.00661318
-0.00637661
-0.00612815
-0.00586713
-0.0055918
-0.00530954
-0.00501804
-0.00471303
-0.00439491
-0.00406218
-0.00372574
-0.00338841
-0.00304009
-0.00269116
-0.00234587
-0.00199665
-0.00164432
-0.00129479
-0.000952899
-0.000618124
-0.000285096
4.14983e-05
0.000356273
0.000659878
0.00095329
0.00123355
0.00150523
0.00176964
0.00201686
0.00224766
0.00247276
0.00269635
0.00290561
0.00309682
0.00327018
0.00342998
0.00356962
0.00369186
0.00380453
0.00390381
0.0039958
0.0040688
0.00413872
0.00420012
0.00423311
0.00425299
0.00427335
0.00430207
0.00431881
0.00431806
0.00429902
0.0042785
0.00425262
0.00420441
0.00414862
0.00408403
0.00400826
0.00393005
0.00386992
0.00383698
0.00378381
0.00369112
0.00361567
0.00355685
0.00347839
0.00337783
0.00329816
0.00324087
0.00314708
0.0030315
0.00295239
0.0028838
0.00281796
0.00274
0.00263068
0.00255274
0.00248242
0.00240954
0.00234641
0.00226936
0.00218261
0.00211779
0.00206232
0.0019854
0.00189181
0.00183803
0.00179874
0.0017299
0.00168507
0.00163434
0.00159545
0.00151319
0.00130205
0.00113427
0.00091242
0.000484717
-0.000124066
0.00407354
0.00648702
0.00928261
0.0115878
0.0134135
0.0147849
0.0157409
0.0163492
0.016674
0.0167549
0.0166275
0.0163275
0.0158845
0.0153146
0.0146444
0.0138965
0.0130878
0.012239
0.0113683
0.0104887
0.00961467
0.00875781
0.00792934
0.00713573
0.0063805
0.00566699
0.00498151
0.00432409
0.00369728
0.0030995
0.00252662
0.00197325
0.00144169
0.000926978
0.000422669
-6.8929e-05
-0.000549693
-0.00102235
-0.00148403
-0.00193706
-0.00238358
-0.00282212
-0.00325204
-0.00367489
-0.00408798
-0.00449029
-0.00488184
-0.00526207
-0.00563093
-0.00598685
-0.00633037
-0.00666124
-0.00697823
-0.00728
-0.0075658
-0.00783512
-0.00808828
-0.00832566
-0.00854649
-0.00875004
-0.00893648
-0.00910572
-0.00925694
-0.00939027
-0.00950512
-0.009601
-0.00967689
-0.00973367
-0.00977118
-0.00978978
-0.00978759
-0.0097635
-0.0097177
-0.00965138
-0.00956606
-0.00946121
-0.00933672
-0.00919078
-0.00902328
-0.00883806
-0.00863598
-0.00841359
-0.00816866
-0.00790218
-0.00761771
-0.00731835
-0.00700217
-0.00667065
-0.006327
-0.00597017
-0.00560057
-0.0052184
-0.00482323
-0.0044203
-0.00401052
-0.00359161
-0.00317194
-0.00275435
-0.00233316
-0.00191078
-0.0014926
-0.00108055
-0.000675259
-0.000274247
0.000117272
0.000496141
0.000862811
0.00121804
0.00156002
0.00188836
0.00220386
0.00250372
0.0027869
0.00305771
0.00331751
0.0035624
0.00379089
0.00399773
0.00418582
0.00435303
0.00450039
0.0046348
0.00475593
0.00486349
0.00495273
0.00502968
0.00509635
0.00514017
0.00516742
0.00519055
0.0052118
0.00522197
0.00521855
0.00519606
0.00516907
0.00513342
0.00507733
0.00501202
0.00493924
0.00485789
0.00477368
0.0046974
0.00463413
0.00456015
0.00446489
0.00437048
0.00428364
0.00419068
0.00408257
0.00398119
0.00389277
0.00379064
0.00367573
0.00357277
0.00347812
0.00339123
0.00329501
0.00318179
0.00308465
0.00299453
0.00290466
0.00282335
0.00273321
0.00263631
0.00255342
0.00247801
0.00239524
0.00229751
0.00222038
0.00216779
0.00209699
0.00203031
0.00196226
0.00189679
0.0017921
0.0015953
0.00140127
0.00115396
0.000752873
0.000199768
0.00760076
0.0100881
0.0126747
0.0147752
0.016394
0.0175517
0.0182964
0.0186908
0.0188065
0.018688
0.0183726
0.017898
0.0173016
0.016603
0.0158259
0.0149885
0.0141137
0.0132285
0.0123384
0.0114458
0.0105648
0.00970662
0.0088765
0.00807405
0.00730043
0.00656106
0.00583746
0.00513414
0.00445248
0.0037964
0.00315721
0.00253178
0.00192124
0.00132445
0.000737398
0.000161015
-0.000407709
-0.00096845
-0.00151656
-0.00205727
-0.00258956
-0.00311117
-0.00362227
-0.00412372
-0.00461158
-0.00508629
-0.00554908
-0.00599771
-0.00643137
-0.00684923
-0.00725163
-0.0076381
-0.00800773
-0.00835939
-0.00869277
-0.00900758
-0.00930423
-0.00958112
-0.00983764
-0.0100744
-0.0102926
-0.0104902
-0.0106663
-0.0108226
-0.0109576
-0.0110695
-0.0111592
-0.0112276
-0.0112731
-0.0112956
-0.0112938
-0.0112671
-0.0112171
-0.0111447
-0.0110492
-0.0109289
-0.0107835
-0.0106133
-0.0104195
-0.0102036
-0.00996534
-0.00970451
-0.00942121
-0.00911358
-0.00878402
-0.00843603
-0.00806779
-0.00768012
-0.00727525
-0.00685609
-0.00642485
-0.00598097
-0.00552301
-0.00505203
-0.00457148
-0.00408535
-0.0035988
-0.00311222
-0.00262293
-0.0021322
-0.00164586
-0.00116548
-0.000692812
-0.000229214
0.000225389
0.000666647
0.00109314
0.00150771
0.00190729
0.00229001
0.00265761
0.00300725
0.00333729
0.00365059
0.00394792
0.00422551
0.00448489
0.00472424
0.00494244
0.00513503
0.00530493
0.00545773
0.00559603
0.00571949
0.00582242
0.00590703
0.0059782
0.00602983
0.0060634
0.0060873
0.00610203
0.0061022
0.00609234
0.0060677
0.0060337
0.00599004
0.00592711
0.00585318
0.00577363
0.00568353
0.00558706
0.00549423
0.0054078
0.00531511
0.00520845
0.00509762
0.00498899
0.00487934
0.00475856
0.00463865
0.00452791
0.00441405
0.00429047
0.0041683
0.00405229
0.00394269
0.00382856
0.00370702
0.00359439
0.00348885
0.00338268
0.00328233
0.00317771
0.00306924
0.00297108
0.00287885
0.00278648
0.00268761
0.00259785
0.00252369
0.00243876
0.00235508
0.00227271
0.00218247
0.0020627
0.00187465
0.00166258
0.00140096
0.00102693
0.000519388
0.0107158
0.0132063
0.0155639
0.0174559
0.0189089
0.0198923
0.0204639
0.0206887
0.0206361
0.0203663
0.0199167
0.0193229
0.0186332
0.0178586
0.0170208
0.0161422
0.0152418
0.0143453
0.0134534
0.0125659
0.0116881
0.0108241
0.00997945
0.00916262
0.00836486
0.00758515
0.00681335
0.00605606
0.00531532
0.00459274
0.00387734
0.00317097
0.00247577
0.00179245
0.00111571
0.00044824
-0.000211428
-0.000859603
-0.00149443
-0.00212279
-0.00274124
-0.00334593
-0.00393636
-0.00451342
-0.00507257
-0.00561697
-0.00614707
-0.00665993
-0.00715563
-0.00763328
-0.00809247
-0.00853263
-0.00895274
-0.00935247
-0.00973175
-0.0100901
-0.0104272
-0.010741
-0.0110328
-0.0113029
-0.011551
-0.0117746
-0.0119756
-0.0121537
-0.0123072
-0.0124358
-0.0125401
-0.0126187
-0.0126713
-0.012698
-0.0126977
-0.0126706
-0.0126175
-0.0125383
-0.0124318
-0.0122966
-0.0121327
-0.0119416
-0.0117247
-0.0114796
-0.0112061
-0.0109076
-0.0105847
-0.0102364
-0.00986418
-0.00946911
-0.00905087
-0.00860892
-0.00814721
-0.00767102
-0.00717906
-0.00667162
-0.00614948
-0.0056145
-0.00507114
-0.0045218
-0.00396887
-0.00341469
-0.00285878
-0.00230209
-0.00175132
-0.00120698
-0.000669131
-0.000143362
0.000370872
0.000871046
0.0013557
0.00182593
0.00228
0.00271589
0.00313178
0.00352525
0.00389814
0.00425201
0.00458698
0.00489779
0.00518508
0.00545241
0.00569625
0.00591371
0.00610684
0.00627544
0.00642593
0.0065611
0.00667637
0.0067716
0.00684661
0.00690195
0.00693875
0.00696148
0.00697266
0.00696595
0.00694705
0.0069172
0.00687343
0.00681924
0.00675197
0.00667273
0.00658571
0.00648423
0.00637221
0.00626291
0.00615652
0.00604608
0.00592642
0.00580124
0.00567339
0.00554434
0.00540943
0.00527305
0.00514361
0.00501328
0.0048736
0.00473589
0.00460585
0.00447472
0.00434131
0.00420941
0.00408353
0.0039643
0.00384222
0.0037232
0.00360475
0.00348259
0.00337107
0.00326416
0.00315977
0.00305707
0.00295791
0.00286492
0.00276468
0.00266507
0.00256611
0.00245884
0.00232781
0.00213873
0.00191453
0.00164738
0.0012982
0.000831499
0.0132044
0.0157433
0.0179469
0.0196923
0.0210111
0.0218412
0.0222765
0.0223935
0.02224
0.0218788
0.0213523
0.0207093
0.0199859
0.0191731
0.0183088
0.0174283
0.0165331
0.015639
0.0147425
0.0138463
0.0129576
0.0120824
0.0112264
0.0103857
0.00954778
0.00871575
0.00788832
0.00706768
0.0062521
0.0054469
0.00464982
0.00385665
0.00307262
0.00229916
0.00153203
0.000774438
2.64168e-05
-0.00070657
-0.00142813
-0.00214395
-0.00284337
-0.00352557
-0.00418989
-0.00483801
-0.00546687
-0.00607897
-0.00667356
-0.00724775
-0.00780232
-0.00833583
-0.00884773
-0.00933773
-0.00980529
-0.0102504
-0.0106728
-0.0110713
-0.0114453
-0.0117944
-0.0121205
-0.0124213
-0.0126967
-0.0129463
-0.0131715
-0.0133698
-0.0135409
-0.0136851
-0.0138031
-0.0138927
-0.0139531
-0.0139854
-0.0139887
-0.0139623
-0.0139052
-0.0138174
-0.0136999
-0.0135517
-0.0133717
-0.0131609
-0.0129218
-0.0126511
-0.0123468
-0.0120123
-0.0116501
-0.011261
-0.010845
-0.0104029
-0.00993659
-0.0094452
-0.00893156
-0.00839956
-0.00784939
-0.00728176
-0.00669862
-0.00610336
-0.00550013
-0.00488975
-0.00427253
-0.00365307
-0.00303397
-0.00241633
-0.00180377
-0.00119758
-0.000599708
-1.41301e-05
0.00055829
0.00111424
0.00165354
0.00217558
0.0026798
0.00316452
0.00362549
0.00406109
0.00447485
0.00486673
0.00523496
0.00557506
0.00588909
0.00618233
0.00644929
0.006689
0.00690272
0.0070868
0.00724773
0.00738895
0.00751339
0.00761888
0.00769638
0.00775072
0.00778995
0.0078128
0.00782007
0.0078092
0.00778269
0.00774363
0.0076896
0.00762452
0.00755017
0.00746286
0.00736634
0.00725546
0.00713093
0.0070056
0.00687982
0.00675022
0.00661654
0.00647877
0.00633561
0.00618699
0.00603601
0.00588327
0.00573519
0.00558581
0.00542985
0.00527669
0.00513144
0.00498375
0.00483428
0.00469034
0.00454981
0.00441542
0.00428063
0.00414543
0.0040141
0.00387855
0.00375318
0.00363366
0.00351646
0.00340497
0.00329408
0.00318657
0.00307519
0.00296197
0.00284611
0.00272375
0.00258056
0.00238948
0.00216179
0.00189476
0.00156537
0.00113349
0.0150367
0.0176379
0.0197171
0.0213832
0.0226709
0.0234673
0.0238374
0.0238749
0.0236586
0.0232569
0.0227153
0.0220682
0.0213306
0.0205157
0.0196647
0.0187991
0.0179123
0.017023
0.0161321
0.0152364
0.0143469
0.0134635
0.0125783
0.0116891
0.0107914
0.00989583
0.00900696
0.00811577
0.00722108
0.00633307
0.00545081
0.0045661
0.00369365
0.00283266
0.00197579
0.00113088
0.000297577
-0.000521074
-0.0013258
-0.0021195
-0.00289329
-0.00364866
-0.00438438
-0.00510076
-0.00579559
-0.00647068
-0.00712473
-0.00775575
-0.00836407
-0.00894838
-0.00950865
-0.0100448
-0.0105562
-0.0110426
-0.0115038
-0.0119382
-0.0123466
-0.0127292
-0.0130856
-0.0134139
-0.0137159
-0.0139911
-0.0142383
-0.0144563
-0.0146451
-0.0148042
-0.0149346
-0.0150348
-0.0151045
-0.015143
-0.0151486
-0.0151211
-0.0150605
-0.014967
-0.0148393
-0.014677
-0.0144823
-0.0142547
-0.0139937
-0.0136969
-0.0133643
-0.0129979
-0.0126008
-0.0121748
-0.0117176
-0.01123
-0.0107163
-0.0101779
-0.00961456
-0.00902835
-0.00842352
-0.00780171
-0.00716367
-0.00651036
-0.00584647
-0.00517624
-0.0044998
-0.00382036
-0.00314232
-0.00246648
-0.00179501
-0.00112995
-0.000475731
0.000165316
0.00079213
0.00140054
0.00199001
0.00255942
0.00310773
0.00363517
0.00413906
0.00461717
0.00506998
0.00549479
0.0058912
0.00625767
0.00659712
0.00691205
0.00719895
0.0074582
0.00768893
0.00788763
0.00805849
0.00820624
0.00833569
0.00844468
0.00852357
0.00857898
0.00862025
0.00863998
0.00863987
0.00862506
0.00859395
0.00854472
0.00848054
0.00840565
0.00832026
0.00822088
0.00811409
0.00799389
0.00785923
0.00771948
0.00757491
0.00742575
0.00727671
0.00712482
0.00696643
0.00680087
0.00663435
0.0064675
0.00630143
0.0061324
0.00596123
0.00579223
0.00562831
0.00546731
0.00530716
0.00514991
0.00499062
0.00483884
0.00469469
0.0045468
0.00440284
0.00425557
0.00411623
0.00398332
0.00385376
0.00373152
0.00360707
0.00348713
0.00336867
0.00324414
0.00311412
0.00297542
0.00281921
0.00262924
0.00240356
0.00213918
0.00182286
0.00141963
0.0162225
0.0189247
0.0209434
0.0225889
0.0239072
0.0247202
0.0250794
0.0251086
0.0248969
0.0245236
0.0240081
0.0233763
0.0226659
0.0218974
0.0210882
0.0202526
0.019399
0.0185314
0.017634
0.0167172
0.0158049
0.0148954
0.0139648
0.0130202
0.0120679
0.0111123
0.0101487
0.00916813
0.00818799
0.00721591
0.00624732
0.00527937
0.00432327
0.00337608
0.0024339
0.00150451
0.000591582
-0.000305653
-0.00118775
-0.00205304
-0.00289599
-0.00371906
-0.00451952
-0.00529805
-0.00605209
-0.00678371
-0.00749156
-0.00817424
-0.00883073
-0.00946046
-0.0100641
-0.0106416
-0.0111919
-0.0117149
-0.0122103
-0.0126778
-0.0131181
-0.0135299
-0.013913
-0.0142675
-0.0145949
-0.0148926
-0.0151595
-0.0153961
-0.0156019
-0.0157761
-0.0159185
-0.0160288
-0.0161071
-0.0161501
-0.0161577
-0.0161295
-0.016067
-0.0159688
-0.0158319
-0.0156577
-0.0154489
-0.0152047
-0.0149214
-0.0145991
-0.0142418
-0.0138485
-0.0134201
-0.0129578
-0.0124612
-0.011933
-0.0113772
-0.0107957
-0.0101861
-0.00954984
-0.00889199
-0.00821708
-0.00752679
-0.00682038
-0.00610171
-0.00537515
-0.00464318
-0.003908
-0.00317318
-0.00244235
-0.0017173
-0.000998404
-0.000291386
0.000400101
0.00107527
0.00173101
0.00236625
0.00297914
0.00356875
0.004135
0.00467615
0.00519108
0.00567804
0.00613158
0.00655194
0.00694464
0.00730969
0.00764254
0.00794473
0.00821917
0.00846272
0.00867311
0.00885322
0.00900911
0.00914049
0.00924729
0.0093282
0.00938647
0.00942522
0.00943835
0.00943116
0.00941195
0.00937575
0.00931707
0.00924337
0.00915846
0.00906115
0.0089491
0.0088293
0.00869678
0.00855167
0.00839924
0.00823802
0.00807176
0.00790839
0.00774056
0.00756251
0.00738102
0.00720179
0.00702171
0.00683981
0.00665333
0.00646543
0.00628041
0.00609975
0.00592707
0.00575608
0.0055842
0.00540815
0.0052393
0.00508342
0.00492347
0.0047687
0.00461082
0.0044584
0.00431221
0.00417061
0.00403715
0.00389926
0.00376776
0.00364201
0.00350886
0.00336708
0.00321436
0.00304732
0.00285929
0.00263475
0.00237395
0.00206858
0.00169003
0.0165578
0.019554
0.0217865
0.0236023
0.0249544
0.0257523
0.026114
0.0261671
0.0259988
0.0256691
0.0252032
0.0246495
0.0240081
0.0232925
0.0225321
0.0217191
0.0208786
0.0200172
0.0191141
0.0181922
0.0172597
0.0163101
0.015331
0.0143317
0.0133118
0.012282
0.0112449
0.0101936
0.00913655
0.00808314
0.00703109
0.00597851
0.00494108
0.0039143
0.00289496
0.00189036
0.000902491
-6.89093e-05
-0.00101735
-0.00194524
-0.00285003
-0.00373257
-0.00458929
-0.00542207
-0.00622827
-0.00701019
-0.00776563
-0.00849217
-0.00918918
-0.00985794
-0.0104992
-0.0111123
-0.0116964
-0.0122511
-0.0127769
-0.013274
-0.0137417
-0.0141794
-0.0145874
-0.0149656
-0.0153141
-0.0156306
-0.0159154
-0.0161693
-0.0163912
-0.0165798
-0.0167342
-0.0168538
-0.0169388
-0.0169866
-0.0169981
-0.0169715
-0.0169069
-0.0168022
-0.0166583
-0.0164762