/*--------------------------------*- C++ -*----------------------------------*\
  =========                 |
  \\      /  F ield         | OpenFOAM: The Open Source CFD Toolbox
   \\    /   O peration     | Website:  https://openfoam.org
    \\  /    A nd           | Version:  8
     \\/     M anipulation  |
\*---------------------------------------------------------------------------*/
FoamFile
{
    version     2.0;
    format      ascii;
    class       volScalarField;
    location    "200";
    object      vpod_3;
}
// * * * * * * * * * * * * * * * * * * * * * * * * * * * * * * * * * * * * * //

dimensions      [0 1 -1 0 0 0 0];

internalField   nonuniform List<scalar> 
12225
(
-0.00373785
-0.00492077
-0.00395331
-0.00261859
-0.00163556
-0.00100964
-0.000626363
-0.000398383
-0.000230921
-8.53816e-05
1.70944e-05
0.00010773
0.000236495
0.000432375
0.000352912
0.00114647
-0.0054431
0.00383786
0.000781018
0.00128685
0.00069326
0.000635922
0.000554894
0.000425202
0.000240052
3.0964e-05
-0.000136076
-0.000179882
-0.000173283
-9.2769e-05
0.00011551
0.000400818
0.0014808
0.00328852
0.00600825
0.00957084
0.00037456
-0.00125669
-0.00207931
-0.00149505
-0.00105238
-0.000791768
-0.000684649
-0.000660429
-0.000623444
-0.000491261
-0.000308224
-4.09549e-05
0.000332125
0.000907014
0.00183145
0.00387566
0.00485433
0.010936
0.00020677
-0.00182811
-0.00289189
-0.00214373
-0.00159918
-0.0012741
-0.00111616
-0.00104001
-0.00094573
-0.000751609
-0.000463754
-6.69601e-05
0.000454356
0.00122502
0.00244314
0.00454996
0.00689449
0.0118565
0.000372634
-0.002118
-0.00371923
-0.00294348
-0.00230493
-0.00188869
-0.00164989
-0.00150372
-0.00135004
-0.00108838
-0.000704137
-0.000192486
0.000470624
0.00141879
0.00282533
0.00505467
0.00788286
0.0125145
0.000595269
-0.00240617
-0.00461604
-0.0038365
-0.00309054
-0.00256457
-0.0022318
-0.00200942
-0.00178849
-0.00145028
-0.000971646
-0.000351169
0.000447378
0.00155125
0.00311109
0.0054144
0.00837528
0.0126146
0.0008142
-0.00261138
-0.00550078
-0.00475424
-0.0039181
-0.0032862
-0.00285779
-0.0025561
-0.00225384
-0.00182622
-0.00125295
-0.000525972
0.000402734
0.00164324
0.00331537
0.00561987
0.00851529
0.012383
0.00102917
-0.00273809
-0.00629117
-0.00564652
-0.00475823
-0.00403704
-0.00352019
-0.00313214
-0.00274374
-0.00222521
-0.00155714
-0.00071834
0.000337663
0.00168735
0.00342944
0.00568981
0.00843197
0.0119421
0.00126736
-0.00278294
-0.00692736
-0.00646757
-0.00557855
-0.00479661
-0.00420145
-0.00373005
-0.0032612
-0.00265168
-0.00188014
-0.000926065
0.000242109
0.00167271
0.00345027
0.00563323
0.00817794
0.0113281
0.00155096
-0.0026157
-0.00738858
-0.00720242
-0.00636561
-0.00555326
-0.00489818
-0.00435278
-0.00379724
-0.00308697
-0.00220541
-0.00113752
0.00012817
0.00163147
0.00343264
0.00552118
0.00786045
0.0106986
0.00190592
-0.00241784
-0.00787653
-0.00794542
-0.00716754
-0.00633433
-0.00562107
-0.00499169
-0.00433433
-0.00351596
-0.00253111
-0.00136847
-2.2646e-05
0.00152842
0.00330718
0.00526281
0.00736683
0.00992324
0.00207013
-0.00257196
-0.00826466
-0.0084572
-0.00770884
-0.00686597
-0.00611193
-0.00542203
-0.00469559
-0.00379189
-0.00272368
-0.0014833
-7.94983e-05
0.00149575
0.00324235
0.00509987
0.00702116
0.00945069
0.00238973
-0.00256045
-0.00846382
-0.00859204
-0.00796288
-0.00720686
-0.00646417
-0.00574247
-0.00495401
-0.00397423
-0.00282794
-0.00151977
-6.12342e-05
0.00153918
0.0032658
0.00505658
0.00687317
0.00930391
0.00270417
-0.00275736
-0.00907076
-0.00898596
-0.00824813
-0.00742286
-0.00659575
-0.00580721
-0.00496314
-0.00393575
-0.00275526
-0.00142302
4.29648e-05
0.00160903
0.0032565
0.00493498
0.00661628
0.00895903
0.002972
-0.00215919
-0.0090455
-0.00912072
-0.00834181
-0.00743155
-0.00650151
-0.00563188
-0.00470876
-0.00363551
-0.00243124
-0.00108825
0.000346821
0.00184883
0.00339215
0.00492923
0.00643406
0.00848799
0.00298729
-0.00111873
-0.00806518
-0.00852305
-0.00790649
-0.00702702
-0.00606156
-0.00513769
-0.00415321
-0.00304987
-0.00183516
-0.00053106
0.000817842
0.00219388
0.00354749
0.00484377
0.00609428
0.00782726
0.00261791
-2.27747e-05
-0.00608045
-0.00682543
-0.00646939
-0.00576645
-0.00491321
-0.00404317
-0.00308865
-0.00204484
-0.00092461
0.000232465
0.00139307
0.00253058
0.00361652
0.00462595
0.00559573
0.00695254
0.0017242
0.000741862
-0.00328999
-0.00398687
-0.00386166
-0.00341081
-0.00278539
-0.00208813
-0.00131025
-0.000484043
0.000364348
0.00122542
0.00207652
0.00287992
0.00362356
0.00429806
0.00495007
0.00588759
0.000277673
0.000645963
0.000116468
-0.000104199
-0.000123696
2.25766e-05
0.000302633
0.000654769
0.0010545
0.00148244
0.00192951
0.00237835
0.00280471
0.00319393
0.00354119
0.00383219
0.00411738
0.0045271
-0.000894245
5.07027e-05
0.00236481
0.00266885
0.00267586
0.0026721
0.00271348
0.00279386
0.00290272
0.00302945
0.00316127
0.00328722
0.00339137
0.00346887
0.00351553
0.00352377
0.00353618
0.00353401
-0.00144156
0.000128251
0.00372956
0.00419749
0.00417002
0.00407219
0.00398714
0.00392346
0.00387792
0.00383962
0.00379815
0.00374595
0.00367571
0.00358105
0.00346537
0.00332462
0.00318485
0.00297315
-0.0017157
0.000446293
0.00470634
0.0051185
0.00498954
0.00479596
0.00461643
0.00445905
0.00431785
0.00417306
0.00401671
0.0038454
0.00365792
0.00345257
0.00323188
0.00299761
0.00276914
0.00243176
-0.00175681
0.000917961
0.00532183
0.00550371
0.00522369
0.00494044
0.00469732
0.00448436
0.00429122
0.00408514
0.00386789
0.00363815
0.00339292
0.00314364
0.00287635
0.00260172
0.00234003
0.0019066
-0.00160846
0.00139271
0.00549422
0.00535615
0.00492744
0.00457722
0.00430443
0.00407816
0.00386942
0.00364652
0.00341654
0.0031844
0.00294297
0.00269409
0.00243697
0.00216957
0.00190408
0.00142713
-0.00132716
0.00170072
0.00516153
0.00472742
0.00422213
0.00386388
0.00360923
0.00340297
0.00321733
0.00302443
0.00282534
0.00262186
0.00241558
0.00220365
0.00198686
0.00176093
0.00154743
0.00110323
-0.000950181
0.00179752
0.00444575
0.00381965
0.00333194
0.00302915
0.00283143
0.00266702
0.00250676
0.0023529
0.00219639
0.00203139
0.00187172
0.00170491
0.00153046
0.00136141
0.00119935
0.00079559
-0.000584553
0.0017611
0.00360715
0.00291282
0.00247944
0.00223282
0.00207831
0.0019484
0.00181633
0.00170465
0.00157699
0.00143836
0.00132638
0.00119771
0.00106288
0.000948285
0.000829704
0.000518287
-0.000523544
0.00142686
0.00285264
0.00231704
0.00197625
0.00174631
0.00158038
0.00144121
0.00130777
0.00119802
0.00108974
0.000967172
0.000868756
0.000765157
0.000661996
0.000588534
0.000518424
0.000242133
-0.000735685
-0.00089514
-7.05724e-05
-0.000147679
-6.56995e-05
6.31044e-05
0.000192583
0.00029028
0.000381684
0.00043009
0.00046135
0.000486112
0.000482541
0.000475473
0.000469414
0.000468713
0.000477646
0.000316728
0.00262021
0.00411985
0.00366718
0.00266817
0.00192656
0.0014221
0.00106233
0.000818467
0.000672708
0.00053502
0.000446348
0.000377067
0.000282837
0.000225422
0.000194008
0.000171966
0.000186551
9.114e-05
0.000163949
0.00126708
0.0025758
0.00369288
0.00446026
0.00479487
0.00476272
0.00438603
0.00393784
0.00358028
0.00326963
0.0029649
0.00273008
0.00254984
0.00239586
0.00228273
0.00209085
0.00184279
0.00160311
0.00132697
0.00103217
0.000554702
-8.17087e-05
-0.000529932
-0.000909511
-0.00120711
-0.0014754
-0.00166861
-0.00179154
-0.00187052
-0.00195553
-0.0019856
-0.00197936
-0.00197498
-0.00193238
-0.00188299
-0.00182236
-0.00174336
-0.00165789
-0.00157266
-0.0014957
-0.00141906
-0.00135439
-0.00128611
-0.00122566
-0.00116129
-0.0011068
-0.00104461
-0.000991386
-0.00093219
-0.000881423
-0.00082133
-0.000771829
-0.000712
-0.000660689
-0.000604751
-0.000558547
-0.000499032
-0.000443904
-0.000381661
-0.000327344
-0.000260425
-0.000201862
-0.000132917
-7.09672e-05
2.2656e-06
6.71085e-05
0.000143516
0.000213236
0.000291419
0.000360073
0.000434734
0.000503586
0.000582666
0.000653205
0.00072704
0.000791128
0.000863912
0.000926671
0.000993479
0.00105638
0.00112029
0.00117685
0.0012303
0.00128215
0.00133943
0.00139052
0.0014364
0.00147766
0.00152199
0.00156018
0.00159221
0.00161602
0.00163613
0.0016585
0.00166621
0.00167188
0.0016757
0.00167499
0.00167091
0.00165709
0.00163855
0.00162478
0.00159942
0.00156144
0.00153826
0.0015072
0.00146662
0.00143531
0.00138925
0.00134041
0.00130269
0.00126191
0.00120837
0.00115553
0.00109917
0.00103044
0.000957296
0.000875742
0.000794436
0.000705632
0.000606484
0.000518369
0.000434982
0.000350527
0.000240219
0.000139952
7.56129e-05
-9.73145e-07
-8.8439e-05
-0.000167936
-0.000232161
-0.000301518
-0.000373663
-0.000442663
-0.000521297
-0.000569633
-0.000616019
-0.000668893
-0.000701114
-0.000726676
-0.000764581
-0.000814795
-0.000837901
-0.000827899
-0.000838018
-0.000909729
-0.000938703
-0.000876243
-0.00087343
-0.000900579
-0.000885212
-0.000885989
-0.000890564
-0.00088182
-0.000909331
-0.000884008
-0.000815651
-0.00079505
-0.000798157
-0.000765329
-0.000741679
-0.000746467
-0.000705159
-0.000672803
-0.000696582
-0.000649069
-0.000573355
-0.000594659
-0.000583788
-0.000483272
-0.000469815
-0.000455279
-0.0004408
-0.000465466
-0.00035687
-0.00029894
-0.000252336
-0.000204232
-0.000131022
0.00390964
0.0062674
0.00756699
0.0083519
0.00874394
0.00872316
0.00833397
0.00766959
0.00684291
0.00596613
0.00512974
0.00434744
0.00361056
0.00289016
0.00220457
0.00150617
0.000765493
-3.84447e-05
-0.000837886
-0.00163281
-0.00240744
-0.00314094
-0.00381933
-0.00438783
-0.00483168
-0.00514552
-0.005337
-0.00541547
-0.00540295
-0.00531366
-0.00516685
-0.00497251
-0.00475391
-0.00452088
-0.00428567
-0.0040456
-0.00381351
-0.00359321
-0.00339139
-0.00320066
-0.00301847
-0.00284775
-0.00269568
-0.00254926
-0.0024067
-0.00226617
-0.00213668
-0.00200137
-0.00187268
-0.00173972
-0.00160675
-0.00146492
-0.00132945
-0.0011873
-0.00105473
-0.000925528
-0.000802714
-0.000667682
-0.000530464
-0.000387383
-0.000247589
-0.000103238
3.51989e-05
0.000180003
0.000325685
0.000485489
0.000639238
0.000796202
0.000946932
0.00110644
0.00126178
0.001415
0.001556
0.00169873
0.00184688
0.00199505
0.0021314
0.00226312
0.00238246
0.00250746
0.00261875
0.00272892
0.00282969
0.0029199
0.00299512
0.00307007
0.00314168
0.00319299
0.00324204
0.00328544
0.00331738
0.0033381
0.00334338
0.00334512
0.00333238
0.0033065
0.00327393
0.00323503
0.00317727
0.00310258
0.00302507
0.00294763
0.00286288
0.00276695
0.00266376
0.00253847
0.00242503
0.00231359
0.00218331
0.0020576
0.00192983
0.00179147
0.00165741
0.00153126
0.00138992
0.00125344
0.00112186
0.00096774
0.000831842
0.000715014
0.00058524
0.000437608
0.000275995
0.000110536
-2.04961e-05
-0.000130779
-0.000242211
-0.000367486
-0.000481015
-0.000581201
-0.00067686
-0.000778668
-0.000862946
-0.000936204
-0.00100497
-0.00106599
-0.00114264
-0.00122015
-0.0012783
-0.00133871
-0.00138083
-0.00141026
-0.00143158
-0.00144215
-0.00145536
-0.0014465
-0.0014389
-0.00146735
-0.00148961
-0.00145526
-0.00144961
-0.00147288
-0.00145205
-0.00139289
-0.0013634
-0.00133515
-0.00131733
-0.00131438
-0.00125225
-0.00120522
-0.00117963
-0.00116179
-0.00111679
-0.00106633
-0.00102767
-0.000964917
-0.000973117
-0.000923181
-0.000839002
-0.000847043
-0.000861835
-0.000780835
-0.000715318
-0.000685837
-0.000616284
-0.000556791
-0.000513875
-0.000441097
-0.000341891
-0.00026193
0.0106595
0.0131063
0.0142661
0.0145918
0.0142708
0.0134738
0.0123263
0.0109297
0.00938968
0.00781697
0.00626881
0.00475695
0.00330275
0.00192197
0.000621213
-0.000618502
-0.00179342
-0.00290579
-0.00395282
-0.00492043
-0.00576862
-0.00648171
-0.00706216
-0.00748018
-0.00773322
-0.00783881
-0.0078187
-0.00768828
-0.00748172
-0.00721766
-0.00691558
-0.00659423
-0.00627565
-0.00595853
-0.00565532
-0.00536094
-0.00507973
-0.00481245
-0.00456267
-0.00432866
-0.00410783
-0.00390558
-0.00371199
-0.00352056
-0.00333363
-0.00315243
-0.00297262
-0.00278772
-0.00260651
-0.00242175
-0.00223447
-0.00204363
-0.00185368
-0.00166051
-0.00146724
-0.00126685
-0.00106189
-0.000851478
-0.000641015
-0.000425424
-0.000206833
1.42084e-05
0.000236792
0.000464361
0.000697468
0.000936507
0.0011732
0.00141158
0.00165013
0.00189432
0.00213334
0.00237066
0.00260185
0.00282969
0.00305471
0.00327499
0.00348715
0.00368953
0.0038817
0.00406415
0.00423281
0.00439795
0.00455003
0.00469041
0.00481563
0.00492912
0.00502794
0.00510484
0.00517171
0.00522339
0.00525694
0.00527804
0.00528839
0.00527815
0.00524261
0.00519638
0.00513007
0.00504657
0.00494592
0.00482787
0.00469696
0.00455281
0.00439342
0.00422563
0.00404948
0.0038472
0.00364702
0.0034475
0.00322732
0.00301351
0.00280134
0.00256965
0.00233766
0.0021247
0.0019085
0.00168963
0.00146823
0.00123771
0.00103034
0.000826387
0.000609685
0.000388635
0.000158798
-6.01349e-05
-0.000253074
-0.00041245
-0.000574504
-0.000767156
-0.000940181
-0.00108293
-0.00120053
-0.00132695
-0.00144943
-0.00156379
-0.00166136
-0.00174205
-0.00184183
-0.00193966
-0.00202682
-0.00211559
-0.00218128
-0.00221015
-0.00220366
-0.00221741
-0.00226491
-0.00224709
-0.00222231
-0.00225643
-0.00228652
-0.00223137
-0.00218092
-0.00220806
-0.00221355
-0.00213954
-0.00208916
-0.00204629
-0.00201376
-0.0020155
-0.00193882
-0.0018678
-0.00181601
-0.00177161
-0.00172699
-0.0016716
-0.00161076
-0.00152976
-0.00152663
-0.00147558
-0.00136773
-0.00135285
-0.00134954
-0.00123606
-0.001147
-0.0010893
-0.00100748
-0.000996848
-0.00091105
-0.000782594
-0.000712285
-0.000624648
0.0163586
0.0180294
0.0187723
0.0185077
0.0175127
0.0160239
0.0141886
0.0121487
0.0100232
0.00790204
0.00583439
0.00385027
0.00198284
0.000241593
-0.00137765
-0.00286105
-0.00419242
-0.00537826
-0.00641538
-0.00728572
-0.00797792
-0.0085003
-0.00886501
-0.00907149
-0.00913292
-0.00907406
-0.00891933
-0.0086959
-0.008429
-0.00812974
-0.00781692
-0.00750969
-0.00721014
-0.00691671
-0.00663529
-0.0063659
-0.00610959
-0.00586443
-0.00563078
-0.00540585
-0.00519074
-0.00498403
-0.00477427
-0.00456523
-0.00435885
-0.00415007
-0.00393412
-0.00371272
-0.00348756
-0.00325549
-0.00302078
-0.00278226
-0.00253903
-0.00229045
-0.00203193
-0.00175829
-0.00147421
-0.00118659
-0.000901225
-0.000609091
-0.000309559
-5.03346e-06
0.000304201
0.000620162
0.000942222
0.00126371
0.00158781
0.00191634
0.00224644
0.0025766
0.00290243
0.00323091
0.00355884
0.00387818
0.00418395
0.00448344
0.0047753
0.0050566
0.00532737
0.00557753
0.00581228
0.00603735
0.00624628
0.00644243
0.00662224
0.00677807
0.00691112
0.00702609
0.0071165
0.00718162
0.00722389
0.00724689
0.00725848
0.0072395
0.00718562
0.00711917
0.00702269
0.00689805
0.00675715
0.00660053
0.00642287
0.00621784
0.00598781
0.00574904
0.00550314
0.00523277
0.00494937
0.0046622
0.00435746
0.00405523
0.00375768
0.00344089
0.00311339
0.00280311
0.00250574
0.00220361
0.00189628
0.00158803
0.00129307
0.000989422
0.000682257
0.000387924
9.23052e-05
-0.000185549
-0.000458801
-0.000696103
-0.000922092
-0.00117354
-0.00140814
-0.00161134
-0.0017737
-0.00193557
-0.00209842
-0.00225789
-0.0023942
-0.0025061
-0.00263397
-0.00275283
-0.00286323
-0.00297296
-0.00306626
-0.00311227
-0.00309625
-0.00310504
-0.0031718
-0.00316732
-0.0031292
-0.00314021
-0.00317074
-0.0031258
-0.00304405
-0.00304472
-0.00306119
-0.00298806
-0.00291237
-0.00283938
-0.00277837
-0.00277126
-0.00268962
-0.00260141
-0.00252486
-0.00244357
-0.00238335
-0.00232748
-0.00224317
-0.00214071
-0.00210437
-0.00205978
-0.00194441
-0.0018717
-0.00183537
-0.00171041
-0.00160204
-0.00148879
-0.00138626
-0.0014224
-0.00131303
-0.00115609
-0.00109859
-0.000918103
0.0203155
0.0214101
0.0216181
0.0207434
0.0191415
0.0170849
0.0147323
0.0122362
0.00972279
0.00726544
0.00491206
0.00269899
0.000654898
-0.00121223
-0.00288873
-0.00436123
-0.00563604
-0.00671551
-0.00760127
-0.00830398
-0.00882877
-0.00919061
-0.00940755
-0.00949499
-0.00947735
-0.0093759
-0.00921715
-0.00902448
-0.00880576
-0.00857186
-0.00833487
-0.00810554
-0.00787577
-0.00764742
-0.00742792
-0.00721787
-0.00701566
-0.00681665
-0.00661651
-0.00641351
-0.00621119
-0.00600747
-0.00579792
-0.00558362
-0.00536048
-0.00512851
-0.00488634
-0.00463325
-0.00436983
-0.00409502
-0.0038119
-0.00352097
-0.00322021
-0.00290867
-0.00258481
-0.00224753
-0.00189918
-0.00154305
-0.00118099
-0.000810612
-0.000432042
-4.65992e-05
0.000345802
0.000744887
0.00115011
0.00155775
0.00197049
0.00238786
0.00280572
0.00322167
0.00363495
0.00404814
0.00445974
0.00486461
0.00525709
0.00563995
0.00601007
0.00636697
0.00671098
0.00703419
0.00733753
0.00762369
0.00789267
0.00814175
0.00836752
0.00856579
0.00873744
0.00888455
0.00899812
0.00908116
0.00913762
0.00916694
0.0091718
0.00914081
0.00907303
0.00898334
0.00886045
0.00870208
0.00852046
0.00831647
0.00808539
0.0078241
0.00753714
0.00723417
0.00691333
0.00657182
0.00621459
0.00584516
0.00546244
0.00507466
0.00468542
0.00428461
0.00387598
0.00347433
0.00308563
0.00269615
0.00230405
0.0019112
0.00152369
0.00113444
0.000747642
0.000374309
1.01932e-05
-0.000335702
-0.000676464
-0.000991514
-0.00128851
-0.00159057
-0.00187909
-0.0021386
-0.0023599
-0.00256823
-0.00277068
-0.00296826
-0.00314071
-0.00329315
-0.00344801
-0.00358778
-0.00371512
-0.0038333
-0.00393388
-0.00399434
-0.00400482
-0.00402278
-0.00407053
-0.00407909
-0.00405548
-0.00404623
-0.00405011
-0.0040142
-0.00394157
-0.00390708
-0.00389093
-0.00382185
-0.00373531
-0.00364338
-0.00356308
-0.00351657
-0.0034278
-0.00332995
-0.00323627
-0.00313014
-0.00304334
-0.0029691
-0.00286841
-0.00276028
-0.00268105
-0.00262077
-0.00251373
-0.00239175
-0.00230229
-0.0021806
-0.00206165
-0.00191729
-0.00180676
-0.00181287
-0.00169317
-0.00153308
-0.00143884
-0.00121577
0.0224196
0.0230803
0.0227629
0.0214535
0.0194978
0.0171311
0.0145228
0.0118252
0.00915588
0.00658483
0.00416274
0.00192929
-9.07859e-05
-0.0018966
-0.00347951
-0.00483882
-0.00598445
-0.00692435
-0.00767206
-0.00824806
-0.00867155
-0.00896402
-0.00914423
-0.00923214
-0.00924644
-0.00920146
-0.00912726
-0.00903318
-0.00892232
-0.00880019
-0.00867274
-0.00854525
-0.00841237
-0.00827718
-0.00814393
-0.00800609
-0.00786246
-0.00771358
-0.00755363
-0.00738326
-0.00720359
-0.00701185
-0.00680627
-0.00658822
-0.00635444
-0.00610442
-0.00583833
-0.005556
-0.00525839
-0.0049446
-0.00461623
-0.00427403
-0.00391776
-0.00354679
-0.00316125
-0.00276155
-0.00234915
-0.00192538
-0.00149048
-0.00104455
-0.000588833
-0.000124429
0.000348502
0.00082871
0.00131563
0.0018084
0.00230671
0.00280784
0.00330998
0.00381085
0.00431082
0.004809
0.00530301
0.00578953
0.00626475
0.00672741
0.00717568
0.00760967
0.00802734
0.00842216
0.00879167
0.00913849
0.00946383
0.0097653
0.0100378
0.0102771
0.0104855
0.0106611
0.0108001
0.0109041
0.0109718
0.0110037
0.0110008
0.0109591
0.0108799
0.0107686
0.0106174
0.0104262
0.0102052
0.00995399
0.0096695
0.00935257
0.00900746
0.0086404
0.00825045
0.00783676
0.00740538
0.00695934
0.00650068
0.00603093
0.00555527
0.00507153
0.00458261
0.00409505
0.00361346
0.00313458
0.00266007
0.00218421
0.00171276
0.00124327
0.000779244
0.00032995
-0.000103
-0.000519857
-0.000924206
-0.0013087
-0.00167036
-0.00202518
-0.00236426
-0.00267399
-0.00295176
-0.00320991
-0.00345127
-0.00368361
-0.00388888
-0.00407357
-0.0042529
-0.00441418
-0.0045565
-0.00468275
-0.00478773
-0.00486047
-0.0048961
-0.00492421
-0.00495718
-0.00496903
-0.00495548
-0.00493594
-0.00491983
-0.0048804
-0.00481327
-0.00475405
-0.00470118
-0.00462511
-0.00453284
-0.00442745
-0.00432995
-0.00424916
-0.00414527
-0.00403267
-0.00392044
-0.00379788
-0.00368801
-0.00358793
-0.00347212
-0.00335085
-0.00324181
-0.00315147
-0.00303738
-0.00289564
-0.00277373
-0.00264312
-0.00250801
-0.00235813
-0.00223459
-0.00218216
-0.00205683
-0.0018951
-0.00176174
-0.00152966
0.023105
0.0233623
0.0227013
0.0212011
0.0191327
0.0166948
0.014056
0.0113581
0.00872145
0.00621439
0.00388208
0.00175884
-0.000130647
-0.00179038
-0.00322488
-0.00444747
-0.00546833
-0.00629321
-0.00695266
-0.00747955
-0.0078894
-0.00819795
-0.00842346
-0.00858647
-0.00870128
-0.00877278
-0.00883085
-0.00887439
-0.0089038
-0.00891466
-0.00891609
-0.00890935
-0.00889024
-0.00885746
-0.00881278
-0.00875238
-0.00867762
-0.00858619
-0.00847114
-0.00833789
-0.00818477
-0.00800906
-0.00781089
-0.00759197
-0.00734835
-0.00708164
-0.00679434
-0.00648513
-0.00615435
-0.00580239
-0.00543108
-0.00504119
-0.00463298
-0.00420646
-0.0037626
-0.00330229
-0.00282729
-0.00233685
-0.00183149
-0.00131324
-0.000784721
-0.000244751
0.000306059
0.000864563
0.00143102
0.00200571
0.00258596
0.0031687
0.00375375
0.00433887
0.00492332
0.00550549
0.00608093
0.00664608
0.00719974
0.00774116
0.00826827
0.00877826
0.00926725
0.00973134
0.0101688
0.0105782
0.0109575
0.0113076
0.0116246
0.0119035
0.0121464
0.0123521
0.0125182
0.0126412
0.0127188
0.012752
0.0127442
0.0126958
0.0126054
0.0124712
0.0122901
0.0120654
0.0118038
0.0115073
0.0111725
0.0108023
0.010399
0.00996633
0.00950899
0.00902643
0.00852125
0.00800123
0.00746601
0.00691741
0.00636102
0.00579654
0.00522529
0.00465395
0.00408617
0.00352
0.00296006
0.00240591
0.00185764
0.00131114
0.00077203
0.000248886
-0.000253635
-0.000735269
-0.00120177
-0.00164966
-0.00207278
-0.00247883
-0.00286566
-0.00322377
-0.00355322
-0.00386133
-0.00414285
-0.00440467
-0.00464065
-0.00485229
-0.00505238
-0.0052318
-0.00538558
-0.00552171
-0.00563676
-0.00572048
-0.00577127
-0.00580585
-0.00583377
-0.00584425
-0.00583253
-0.00580532
-0.00577501
-0.00572744
-0.00565507
-0.0055758
-0.00549817
-0.00540942
-0.0053059
-0.00518991
-0.00507545
-0.00496628
-0.00484324
-0.00471116
-0.00458043
-0.00444324
-0.00431316
-0.00418993
-0.00405632
-0.00391918
-0.00378579
-0.00366213
-0.0035292
-0.00337906
-0.00324033
-0.00309645
-0.00294387
-0.00278864
-0.00264678
-0.00254801
-0.00241296
-0.00224412
-0.00207787
-0.00184469
0.0225626
0.0227469
0.0219987
0.0205113
0.0185461
0.0162221
0.0137103
0.0111526
0.00866226
0.00632008
0.0041635
0.00221599
0.000505153
-0.000991655
-0.00228756
-0.0033954
-0.00433196
-0.00510341
-0.00574268
-0.00628013
-0.00673546
-0.00712536
-0.00746019
-0.00774291
-0.00799372
-0.00821956
-0.00843555
-0.00863452
-0.00881322
-0.00896806
-0.00910971
-0.00923308
-0.00933318
-0.00940698
-0.00945857
-0.00948282
-0.00948036
-0.00944592
-0.00937704
-0.00928247
-0.00915848
-0.00900134
-0.00881169
-0.00859195
-0.00833826
-0.0080562
-0.007748
-0.00741187
-0.00704972
-0.00666236
-0.00625101
-0.00581667
-0.00535971
-0.00488134
-0.00438305
-0.00386568
-0.00333026
-0.0027756
-0.00220488
-0.00161975
-0.00102127
-0.000408035
0.0002163
0.000850271
0.00149435
0.00214681
0.00280514
0.0034684
0.00413493
0.00480172
0.00546743
0.00612944
0.00678365
0.00742752
0.00805949
0.00867838
0.00928119
0.00986315
0.0104198
0.0109519
0.0114569
0.0119285
0.0123642
0.0127636
0.0131233
0.0134415
0.0137182
0.0139539
0.0141439
0.0142822
0.014371
0.0144107
0.014402
0.0143447
0.0142367
0.0140784
0.0138706
0.0136144
0.0133143
0.0129738
0.0125887
0.0121645
0.0117056
0.0112118
0.0106879
0.0101372
0.00956155
0.00896828
0.00835838
0.00773504
0.00709886
0.00645213
0.0057999
0.00514856
0.00450055
0.00385345
0.00321016
0.00257792
0.00195316
0.0013351
0.000727517
0.000132976
-0.0004399
-0.000986005
-0.00151102
-0.0020135
-0.00249436
-0.00295197
-0.00338586
-0.00379041
-0.00416401
-0.00451455
-0.00483635
-0.00512836
-0.00539552
-0.00563413
-0.00584923
-0.00604052
-0.0062048
-0.00635207
-0.00647942
-0.00657247
-0.00663339
-0.00667206
-0.00669579
-0.00670133
-0.00668791
-0.00665612
-0.00661314
-0.00655449
-0.0064724
-0.006379
-0.00628577
-0.00617979
-0.00605661
-0.00592945
-0.00580051
-0.00566587
-0.00552139
-0.00536829
-0.00521945
-0.00506783
-0.00491763
-0.00477463
-0.00462158
-0.00446692
-0.00431305
-0.0041599
-0.00400497
-0.00384436
-0.00369144
-0.00353422
-0.00336901
-0.00320133
-0.00303993
-0.00291081
-0.00276385
-0.00258353
-0.00238967
-0.00215464
0.0214863
0.0218379
0.0211877
0.0198715
0.0181199
0.0159931
0.0136944
0.0113714
0.00910701
0.00698062
0.00502942
0.00328691
0.00175917
0.000394911
-0.000801942
-0.00182891
-0.00272192
-0.00349541
-0.00418133
-0.0048002
-0.00536238
-0.00587554
-0.00634296
-0.00677654
-0.00719566
-0.00759748
-0.00798305
-0.00834811
-0.00869237
-0.00900689
-0.00929137
-0.00954845
-0.00976974
-0.00995171
-0.0100981
-0.0102047
-0.0102711
-0.010291
-0.0102697
-0.0102156
-0.0101171
-0.00997538
-0.00979193
-0.00957053
-0.00930984
-0.00901541
-0.00868859
-0.0083282
-0.00793737
-0.00751661
-0.00706732
-0.00659108
-0.00608907
-0.00556305
-0.00501442
-0.00444311
-0.00385019
-0.00323666
-0.0026063
-0.00195769
-0.00129235
-0.000611545
8.14327e-05
0.000787668
0.00150571
0.00223302
0.00296641
0.00370585
0.00444973
0.00519373
0.00593607
0.0066745
0.00740695
0.0081302
0.00883937
0.00953234
0.0102072
0.0108595
0.0114828
0.0120787
0.0126465
0.0131793
0.013672
0.0141218
0.0145271
0.014886
0.0151959
0.0154579
0.0156685
0.0158234
0.0159233
0.0159685
0.0159584
0.0158915
0.0157662
0.015585
0.0153521
0.0150659
0.0147281
0.0143422
0.0139094
0.0134338
0.0129193
0.0123667
0.0117809
0.0111633
0.0105196
0.00985408
0.00917118
0.00847368
0.00776109
0.00703632
0.00630797
0.00557995
0.00485359
0.00412714
0.00340623
0.00269948
0.00200196
0.00131509
0.000642581
-1.78776e-05
-0.000656902
-0.00126912
-0.00185041
-0.00240289
-0.00293767
-0.00344801
-0.00392476
-0.0043701
-0.00478417
-0.00517056
-0.00552741
-0.0058516
-0.00614728
-0.00641067
-0.00664147
-0.00684578
-0.00702083
-0.00717497
-0.00730931
-0.00741011
-0.00747946
-0.00752306
-0.00754277
-0.00754042
-0.0075201
-0.00748412
-0.00743069
-0.00736068
-0.00726869
-0.00716447
-0.00705606
-0.00693332
-0.00679257
-0.0066488
-0.00650225
-0.00634502
-0.00618143
-0.00600987
-0.00583972
-0.0056715
-0.00550101
-0.00533881
-0.00516771
-0.00499386
-0.00482148
-0.00464569
-0.00447232
-0.00429695
-0.00412586
-0.00395413
-0.00377856
-0.00359835
-0.00342137
-0.00326668
-0.00310149
-0.00290791
-0.00269416
-0.00245741
0.0201419
0.0208775
0.0204296
0.0193969
0.0179935
0.0162071
0.014194
0.0121122
0.0100786
0.00817461
0.00643601
0.00487693
0.00347564
0.00220606
0.00107714
7.78601e-05
-0.000833726
-0.00166341
-0.00243219
-0.00316086
-0.0038484
-0.00450381
-0.00514104
-0.00576406
-0.00637863
-0.00697011
-0.00753001
-0.00806593
-0.00857626
-0.00904561
-0.00947229
-0.0098643
-0.0102023
-0.0104862
-0.0107248
-0.0109091
-0.0110407
-0.0111172
-0.0111415
-0.0111192
-0.0110422
-0.0109152
-0.0107398
-0.0105191
-0.0102533
-0.00994769
-0.00960356
-0.00922116
-0.00880355
-0.00835169
-0.00786784
-0.00735407
-0.00681151
-0.00624184
-0.00564633
-0.00502493
-0.00438018
-0.00371374
-0.00302682
-0.00231862
-0.00159301
-0.000851111
-9.33735e-05
0.000679757
0.00146605
0.00226382
0.00306898
0.00388066
0.00469626
0.00551337
0.00633066
0.00714503
0.00795273
0.00874953
0.0095333
0.0103004
0.0110444
0.0117623
0.0124518
0.0131119
0.0137396
0.0143291
0.0148742
0.0153706
0.0158197
0.0162194
0.0165643
0.016852
0.0170831
0.0172557
0.0173657
0.0174126
0.0173976
0.0173224
0.0171848
0.0169837
0.0167245
0.0164074
0.0160325
0.015604
0.0151262
0.0146021
0.0140338
0.0134237
0.012778
0.0120966
0.0113864
0.0106507
0.00989499
0.00912384
0.00834019
0.00754562
0.00674653
0.00594323
0.0051402
0.00433859
0.00354609
0.00276716
0.0020006
0.00124891
0.000514231
-0.000206525
-0.000905733
-0.0015774
-0.00221412
-0.00281915
-0.00340339
-0.00395884
-0.00447414
-0.00495995
-0.00541429
-0.00583228
-0.00621667
-0.00657102
-0.00689203
-0.00717627
-0.00742517
-0.00764504
-0.00782962
-0.00798888
-0.00812588
-0.00823142
-0.00830743
-0.00835566
-0.0083722
-0.00836319
-0.00833545
-0.00829209
-0.00822777
-0.00814396
-0.0080416
-0.00792782
-0.00780349
-0.00766523
-0.00751176
-0.00734809
-0.00717824
-0.00700115
-0.00682439
-0.00663781
-0.00644307
-0.00625502
-0.00606506
-0.00588269
-0.00569467
-0.00550362
-0.00531317
-0.00511809
-0.00492945
-0.00473779
-0.0045447
-0.00435692
-0.00416938
-0.00398074
-0.00379226
-0.00361164
-0.00342522
-0.00321877
-0.0029938
-0.00275723
0.0188786
0.0202215
0.0200145
0.0192972
0.0182732
0.0168395
0.0151278
0.01332
0.0115366
0.00986911
0.00831795
0.00688743
0.00558335
0.00439041
0.00329199
0.00227299
0.00131546
0.000400951
-0.000504522
-0.00139905
-0.00226029
-0.00309381
-0.00392791
-0.00475158
-0.00555494
-0.00632869
-0.00707434
-0.00779857
-0.00847703
-0.00909728
-0.0096627
-0.0101754
-0.0106211
-0.0110036
-0.0113283
-0.0115874
-0.0117787
-0.0119057
-0.0119717
-0.0119781
-0.0119217
-0.011809
-0.0116404
-0.0114204
-0.0111495
-0.0108337
-0.0104747
-0.0100737
-0.00963257
-0.00915331
-0.00863928
-0.00809253
-0.00751393
-0.0069052
-0.00626762
-0.00560263
-0.00491261
-0.00419759
-0.00345878
-0.00269807
-0.00191905
-0.00112044
-0.00030268
0.000531716
0.00138052
0.00224227
0.00311413
0.00399342
0.00487691
0.00576485
0.00665367
0.00754006
0.00841785
0.00928418
0.0101387
0.0109751
0.0117855
0.0125679
0.013323
0.0140463
0.0147288
0.0153689
0.0159627
0.0165063
0.0169987
0.0174355
0.0178107
0.0181217
0.0183719
0.0185605
0.0186824
0.0187334
0.0187141
0.0186292
0.0184773
0.0182581
0.0179741
0.0176272
0.0172186
0.0167504
0.0162276
0.0156566
0.0150372
0.0143721
0.0136669
0.0129246
0.0121508
0.0113493
0.0105256
0.00968518
0.0088319
0.00797021
0.00710309
0.00622879
0.00535224
0.00448432
0.00362831
0.00278112
0.00194788
0.00113477
0.000340225
-0.000436389
-0.00118979
-0.00191179
-0.0026017
-0.00325977
-0.003887
-0.00447961
-0.00503436
-0.00555963
-0.00604944
-0.00649523
-0.00690431
-0.00728434
-0.00762699
-0.00792942
-0.00819514
-0.00842906
-0.00862471
-0.0087909
-0.00892942
-0.00903623
-0.00911551
-0.00916471
-0.00917657
-0.00916294
-0.00913299
-0.00908096
-0.00900258
-0.00890435
-0.00878968
-0.00866441
-0.00852686
-0.00837394
-0.00820624
-0.00802177
-0.00783001
-0.00763569
-0.00744425
-0.00724342
-0.00702827
-0.00682069
-0.00661012
-0.00640734
-0.00620249
-0.00599524
-0.00578759
-0.00557503
-0.00537218
-0.0051645
-0.00495094
-0.00474521
-0.0045444
-0.00434634
-0.00414654
-0.00394252
-0.00373928
-0.0035214
-0.00328785
-0.00305098
0.0178274
0.0198792
0.0202065
0.0199679
0.0192599
0.0180741
0.0166118
0.0150465
0.0134878
0.0120018
0.010592
0.00929081
0.00806099
0.00688354
0.0057599
0.0046549
0.00357783
0.00251985
0.00144748
0.000384077
-0.000662308
-0.00169892
-0.00273713
-0.0037608
-0.0047664
-0.00573565
-0.00666048
-0.00754542
-0.00837638
-0.00913979
-0.00983674
-0.0104691
-0.0110182
-0.0114908
-0.0118924
-0.0122171