/*--------------------------------*- C++ -*----------------------------------*\
  =========                 |
  \\      /  F ield         | OpenFOAM: The Open Source CFD Toolbox
   \\    /   O peration     | Website:  https://openfoam.org
    \\  /    A nd           | Version:  8
     \\/     M anipulation  |
\*---------------------------------------------------------------------------*/
FoamFile
{
    version     2.0;
    format      ascii;
    class       volScalarField;
    location    "200";
    object      wpod_4;
}
// * * * * * * * * * * * * * * * * * * * * * * * * * * * * * * * * * * * * * //

dimensions      [0 1 -1 0 0 0 0];

internalField   nonuniform List<scalar> 
12225
(
9.86753e-16
1.94049e-16
-2.43659e-17
2.07046e-17
7.65703e-17
-1.21287e-17
-7.0735e-18
-5.02751e-17
-3.20786e-17
2.62748e-17
6.90405e-18
-1.26979e-17
1.01e-17
1.68968e-17
-7.5293e-18
-4.78864e-18
-9.19397e-20
5.74554e-18
-5.40863e-18
-1.0404e-17
-2.53745e-19
9.36955e-18
-8.13384e-19
-1.08557e-17
1.8847e-18
-5.58655e-18
3.41083e-18
-1.37115e-18
-1.43953e-19
3.26662e-19
-4.1295e-18
-7.6539e-18
2.86098e-18
-9.15704e-18
2.97534e-18
-7.65224e-18
1.27387e-17
-3.45998e-18
1.89313e-18
3.91863e-19
-8.73634e-18
-1.80674e-19
2.2949e-18
-2.78777e-18
2.03356e-18
-1.57459e-18
1.60011e-18
-6.13151e-19
-3.69611e-18
2.36385e-18
-1.9709e-18
4.87863e-18
1.60629e-18
-8.62911e-19
-6.15981e-18
-2.96523e-18
2.37683e-18
2.19808e-19
5.09139e-19
-1.38887e-18
1.33929e-18
2.50725e-18
1.26193e-18
-6.21113e-19
2.33769e-19
-4.80827e-19
-2.29527e-19
-5.70949e-19
-1.7928e-19
-3.58232e-19
1.78025e-19
6.04286e-20
1.79052e-19
-1.22929e-19
-5.44801e-20
-2.73425e-20
6.44159e-20
1.01246e-19
1.27752e-19
-2.66515e-20
4.23626e-20
6.03637e-21
-1.14687e-19
1.10937e-19
1.50827e-19
2.44672e-20
-1.41472e-19
-2.32279e-21
-1.85978e-20
2.128e-20
1.11469e-20
-2.47546e-20
-1.44921e-20
-7.99155e-21
6.21125e-22
3.49539e-21
-3.11106e-21
1.01989e-21
8.3379e-22
8.9147e-24
1.83197e-21
-6.4177e-22
5.15032e-22
0
0
0
0
0
0
0
0
0
0
0
0
0
0
0
0
0
0
0
0
0
0
0
0
0
0
0
0
0
0
0
0
0
0
0
0
0
0
0
0
0
0
0
0
0
0
0
0
0
0
0
0
0
0
0
0
0
0
0
0
0
0
0
0
0
0
0
0
0
0
0
0
0
0
0
0
0
0
0
0
0
0
0
0
0
0
0
0
0
0
0
0
0
0
0
0
0
0
0
0
0
0
0
0
0
0
0
0
0
0
0
0
0
0
0
0
0
0
0
0
0
0
0
0
0
0
0
0
0
0
0
0
0
0
0
0
0
0
0
0
0
0
0
0
0
0
0
0
0
0
0
0
0
0
0
0
0
0
0
0
0
0
0
0
0
0
0
0
0
0
0
0
0
0
0
0
0
0
0
0
0
0
0
0
0
0
0
0
0
0
0
0
0
0
0
0
0
0
0
0
0
0
0
0
0
0
0
0
0
0
0
0
0
0
0
0
0
0
0
0
0
0
0
0
0
0
0
0
0
0
0
0
0
0
0
0
0
0
0
0
0
0
0
0
0
0
0
0
0
0
0
0
0
0
0
0
0
0
0
0
0
0
0
0
0
0
0
0
0
0
0
0
0
0
0
0
0
0
0
0
0
0
0
0
0
0
0
0
0
0
0
0
0
0
0
0
0
0
0
0
0
0
0
0
0
0
0
0
0
0
0
0
0
0
0
0
0
0
0
0
0
0
0
0
0
0
0
0
0
0
0
0
0
0
0
0
0
0
0
0
0
0
0
0
0
0
0
0
0
0
0
0
0
0
0
0
0
0
0
0
0
0
0
0
0
0
0
0
0
0
0
0
0
0
0
0
0
0
0
0
0
0
0
0
0
0
0
0
0
0
0
0
0
0
0
0
0
0
0
0
0
0
0
0
0
0
0
0
0
0
0
0
0
0
0
0
0
0
0
0
0
0
0
0
0
0
0
0
0
0
0
0
0
0
0
0
0
0.000779262
-0.00221944
0
0
0
0.000605127
0
0
0
0
0.001082
0
0
0
0
0.000511041
0
0
0
0
0
0
0
7.31382e-05
-4.75564e-05
3.32059e-05
1.92974e-05
0
0
1.38201e-05
2.39164e-05
0
0
3.39446e-05
0
0
-3.81476e-05
0
-4.53021e-05
-9.41383e-05
0
0
0
0
0
-0.000127618
-0.000128743
-0.000133999
0
0.00014704
0
-0.000154421
-0.000160399
0
0
0
-0.000176715
0
0
0
0
0
0
0
0
0.000204036
0
0
-0.00021049
-0.000216454
0
0.000219975
-0.000222811
0
0.00022542
0
0
-0.000231875
0
0.000236249
0
-0.000236803
-0.000237117
-0.000238066
-0.000477304
0.000478926
0
0
0
0.000482602
0.000481246
-0.000482249
0
0.000480387
0.000475795
0.000471919
0
0
0
0.00045936
0
0
-0.000448499
0
0
-0.000438919
0
0
0.000425015
0.000420526
0
-0.000403729
0
0.000382225
0
0.000355585
0.000335802
0
0
0
0
0
0
0
9.00444e-05
-6.0475e-05
0
0
0
0
0.000203239
0
-0.000362946
0.000450307
0
0
0
-0.000846138
-0.000934518
0
-0.00105829
-0.00110042
0.0011416
0
0
0.00118266
0
0
0
0
-0.00113244
-0.00109889
0
-0.00104897
0
0
-0.000960519
0
-0.000910447
0
0
-0.000840713
0
-0.000808879
0
0
0
0.000758882
0
-0.000748758
0
0
0
0
0
0
0
0.00122906
0
0
-0.00145669
-0.000502685
0
0.000522589
0
0.000216181
-0.000343771
-0.000273554
0
-0.000203284
-9.3837e-05
0
0
0
0
-7.31348e-05
0
9.28096e-05
0
0
-9.22018e-05
0
0.00010612
-5.2447e-05
5.24183e-05
-4.96411e-05
-4.82554e-05
0
0
5.18654e-05
-5.16481e-05
0
0
4.28262e-05
0
0
-3.53265e-05
0
3.23031e-05
-5.61191e-05
0
0
-8.85768e-05
-8.2924e-05
-7.88988e-05
3.68484e-05
-2.74516e-05
-6.50012e-05
3.30362e-05
1.08214e-05
0
-5.66081e-06
4.05303e-06
0
0
0
1.41068e-05
0
-4.33924e-05
0
-6.06571e-05
0
7.29266e-05
0
-8.56748e-05
4.28034e-05
0
0.000100508
5.30635e-05
5.65091e-05
0
5.82484e-05
6.16541e-05
0
-6.8003e-05
0.000137814
0
7.46056e-05
0
-0.00023612
0
0.000236437
8.40114e-05
-8.16036e-05
-0.000166195
0.000164527
0
0
0
-0.000547175
-0.000184352
0.000182654
0
0.000185692
-0.000185655
-0.000184933
0
0
0
-0.000178869
0
0.000351609
0.000545291
-0.000357462
0
-0.000184213
0
-0.000346209
0.000175654
0.000169839
0
0.000479165
-0.000317568
-0.000152493
0
-0.000150281
-0.000436023
0
-0.000254981
-0.000246866
-0.00023944
0
0
0
9.89521e-05
8.37305e-05
0
0.000133207
0.000115273
0
7.68395e-05
0.000117386
-1.9614e-05
-2.10921e-05
0
0
0
5.11809e-05
-5.99627e-05
-0.000153331
8.7292e-05
-7.85364e-05
-0.000117684
0
0
0.000143932
0
0
-0.000353628
0
-0.000207073
0.000207086
0
-0.000187651
0
0
0.000210207
-0.000454128
0.000218162
0
0
-0.000208124
0
-0.000211445
0
0
0
-0.000195742
0
0.000219945
0
0
-0.000386192
0.000403192
0
0
0
-0.000807142
0
0.000544793
8.29433e-06
0.00387062
0
-0.00143275
0
0
-3.19317e-06
0.000266999
0.000228552
0.000195291
0
0
-0.000145064
-0.000266293
0.000243061
0
0.000208067
-9.6321e-05
0
0.000173442
8.06374e-05
-0.000159506
-7.70231e-05
0
0.000157386
0.000154972
0
0.000156018
0
0.000154717
7.45915e-05
0
0
0
0
0
0
0.000120969
-0.000182489
0
0
0
-2.04072e-06
0.000102481
0.000196953
-0.000185641
-8.5189e-05
7.45316e-05
1.94899e-06
6.40674e-05
0
5.25695e-05
1.96916e-06
0
0
-2.61865e-05
0
0
1.02465e-05
8.87078e-07
7.43414e-06
0
-1.68472e-05
0
-1.77049e-05
-2.76244e-05
6.21132e-05
3.3762e-05
0
-8.54851e-05
0
-0.000145522
-9.87287e-05
-0.000106619
0.000118684
-0.000196959
0
0
0.000143569
0.000235871
0
-8.62645e-05
0
0.000267924
3.05297e-06
-2.99403e-06
-0.000183468
0
0.000204952
2.54995e-06
0
0
0
-0.000220872
0
0
0
0
0
-0.00021767
0
-0.000214112
-0.000229203
0.000224402
0
0.000228744
0
0.000235585
-0.000239063
-0.000681137
0
-0.000614683
-0.000202029
0
-0.000420452
-0.000430527
0.000629947
0
0.000180788
0.000179878
0.00056266
0
0
0
0.00016773
0
0
-0.000146072
-0.000130881
0
0
-0.000203748
0
0.000175286
0.000184056
0
0
-0.000142152
7.17062e-06
7.22317e-06
0
-0.000197171
0
0
0
3.38576e-05
0
-5.99059e-05
1.28954e-05
0
5.75204e-05
0
0
4.97725e-05
-5.66045e-05
0
-0.000124255
0.000107401
0
0
0
0.000146281
0
6.38866e-05
0
0
0
0
0
0
9.47912e-05
0
3.39714e-05
-0.000159548
0
0
-3.55759e-05
-8.49353e-05
9.60335e-05
5.85242e-05
-0.000172416
-0.00584308
-0.00199885
-0.000636318
0
0.000742592
-0.000307993
0
-0.00021534
0
0.000340567
0
0.000141008
0.000262723
-0.000244998
0
-0.000214459
0
0
-0.000188768
0
-2.38926e-06
0
0
2.17136e-06
-0.000162835
-0.0001613
-0.000158629
0
-0.000301398
0
-0.000131897
0
0
0.000112929
0
-0.000109304
1.51381e-06
0.000211793
-0.000209234
0
0
-0.000107329
0
-9.54241e-05
8.98912e-05
8.40868e-05
0
-7.35068e-05
-6.89784e-05
0.000129108
-5.80346e-05
-5.16685e-05
0
0
3.7807e-05
0
0
-4.76679e-05
-3.80525e-05
0
0
0
0
2.85646e-07
-6.32246e-06
-1.63637e-05
-4.26275e-05
0
2.40228e-06
0
5.02935e-05
2.34385e-06
6.22539e-05
-6.78242e-05
2.27095e-06
0
-9.05654e-05
-9.62043e-05
-0.000205327
0
0.000110848
0
-0.000241805
0.000126697
-0.0001289
0.000131238
0.000276758
-0.00014345
0.000148816
0
-0.000304127
0
-0.000321024
0.000323639
0.000324401
-0.000327499
-0.000335243
0
-0.000165616
0
0
-0.0003387
0
0
-0.000339121
0
0
0
0.000707409
0
0.00068283
0.000329982
0.000327886
-2.66208e-06
0.000347382
-0.000689951
-0.000342496
0
-0.000317348
-0.000633198
0
0
0
3.89749e-06
0
0
0
0
0.000499636
0
-0.000464776
0
-0.000429073
-0.000213312
0.000424988
-0.000382536
-0.000189331
0.000177471
-0.000163359
0
-0.000154774
0
0
0
-0.000240699
0
-4.5776e-06
0
0
-0.000130115
0
0
0.000154021
3.77103e-06
0
-0.000105039
-6.91396e-05
0
0
5.99527e-05
-2.05804e-06
0
0.000120883
0
0
0
-0.000131823
0
0
0.000141059
0
0
-0.000293001
0
0
0.000233849
0.000509251
-0.000270201
0
0.000853115
0.00319545
0.00173727
0.00117599
0
-0.00142924
-5.88529e-06
0
0
0
-0.000325551
0
0
0
0
0
0.000209966
0.000198717
0
0
-0.000195211
0.000375315
0
0.000176827
-0.000171902
0
0.000511271
-0.000336958
0.000325101
0.000151195
0
0.000393886
0
0
-0.000105017
0.000207581
0.000305848
-0.000302279
-0.000100146
0.00020056
0
0
-1.95403e-06
0
-0.000185711
-0.000181165
-0.00017506
0
0.000158788
0
-0.000285052
0
0.000126099
0
-0.000109952
0
0
0
0
0
0
0
-4.13758e-05
0
0
-1.79897e-05
0
-4.13157e-06
1.51964e-06
1.09276e-05
0
0
2.83103e-05
-6.78224e-05
0
0.000139985
0
6.01304e-05
0
6.77492e-05
0.000143643
-7.77383e-05
0
8.52242e-05
-0.000175925
0
0
-0.00020961
0
0.00022074
0
0.000236015
0
0.000501305
-0.000261502
-0.000518637
0.000267419
0.000271423
0
4.43992e-07
0
-0.000270517
0.000268572
0
0
0.00027158
-0.000274271
0
0
-0.000281967
0
-0.000289097
0
-0.000280654
0.000282814
-0.000573367
0.000287726
0.000284342
0
0.000277045
0.000275224
0
0
0.000523621
-0.000257561
0.000521534
0
0
0
-0.000935442
0
0.000440796
0
0.000415114
0
-0.000404715
0.00038911
0.000371102
-0.000348287
0
0
-5.36765e-06
0
0
0
0.000265542
0
0.000264432
0
0.000221186
0.000203149
-0.000183183
0
0.00019728
-0.000199847
0
-0.000173028
0.00033364
0
0.000325339
-0.000142363
0.000175312
0
-0.000192298
0
0
0
0.000201344
0
0
0
0
0
0.000251256
0
0.000538607
0
-0.000628204
-0.000603436
0
0
-0.00269123
0
0
0
-7.94079e-06
-6.70386e-06
-0.000475219
0
0
0
0
0
-0.00051224
0
0.000454901
-0.000212571
-0.000202353
0
0
0.000188613
-0.000185085
0
-0.000178021
0.00035086
0
-0.000340971
0.000339371
-0.000328492
0
0
-0.000265788
0
0
0.000216009
-0.000417651
-0.000207381
0.000419267
-0.00021359
0
0
0
0.000208639
0
0.000194259
0.000188188
0.000180871
0.000175177
-0.000167869
0
0.000154617
0
9.93167e-07
0
0.000248593
0
-0.000107883
0
0
-0.000165129
0
0
5.81864e-05
0
0
-7.54108e-05
0
4.56967e-05
1.54356e-05
0
-1.20377e-05
0
-7.30625e-06
5.35449e-05
0
-5.60117e-05
0
0
-8.72959e-05
0
-0.000109333
0.000121118
0
0
0.000131832
-0.000141716
-0.000157366
-0.000162529
0
-0.000177103
-0.000188435
0
0
-0.000205298
0
0.000214064
0
-0.00022513
0
-2.35523e-07
0
0.0002162
0
0
0
0
0.000225764
0
0
0.000460069
0
0
0
0.000508033
0
0.000501494
0
-0.000517486
0.000506684
0
-0.000483938
0
0
-0.000892776
0.000464996
-0.000459002
0
0
0
0.000836571
0
-0.000417291
0
0
0
0
-0.000368155
0
0.000339144
-0.000337634
-0.000320185
0.000316109
0
0
0
0
0
0
0
-0.000234659
0
0.000208456
0
-0.000636371
0
0.000406138
0.00019074
-0.000202712
0
-0.000403622
0
-0.000392152
0
0
0
0
0
0.000455118
0.000494857
0
0
0
0
-0.000581157
0
-0.00120499
0.000607707
0.000641476
0.000650736
0.000637764
0
0.00229549
0
0.00213575
0.00165329
-0.000669307
-0.0005482
-0.000460389
-0.000783764
0
0
0.000565084
0
0.000988849
0
-0.000453608
0
0
0.000406302
0
0.000386679
0
0
0
4.68236e-06
0
0
0
0
0
0
-0.000269234
0
0.000229834
2.79226e-06
0.000214962
0
-0.000217323
0.000218221
0
0
0
0
0
0
-0.000203037
0.000194969
-0.00018529
0.000355725
0
-0.00032778
0.000313235
0.000149864
0
-0.000132969
0
0.000116011
0
0
0.000181589
0
-0.000152621
0
0
0
0.000195958
8.32114e-05
-6.74903e-05
-5.61769e-05
0
3.6481e-05
0
-1.45318e-05
-1.00674e-06
0
0
3.67223e-05
0
6.37908e-05
0
-7.2927e-05
-8.76732e-05
0
0
0
0.000115231
0.000126194
0.000127536
0
0
0.000150467
0.000150282
0
0
0
-0.000362565
0
0.000198714
0
-0.000181634
0
0.00037131
0.000385561
-0.00036792
0
0
0.000401283
0
0.000401905
5.46159e-06
-0.000416675
0
0
-0.000455174
0
0
-0.000473485
0.000455074
-0.000910064
0
0.000405748
0
0
0.000801249
-0.000418459
0
0
0
0
-0.0003741
0.000379266
0.000371749
0
0
0
0.00035327
0.000696656
0
-0.000973656
0.00031034
0.000302885
0
-0.000566615
0
0
0
0
-0.00052663
0
0
0
0
0
-2.1158e-06
0.000425667
-0.000412019
0.000393727
0
-0.000424543
0
0.000392864
0.000403247
0
0
0.000442337
0.000455008
0.000472004
1.25518e-06
-0.000502519
0
0
0
0.000592259
0.000596161
0
0.00122121
-9.50294e-06
-1.31572e-05
-0.000626865
-0.00127404
0.00296396
0
0
-0.00408777
-0.00158676
-1.88718e-05
0.00103542
-1.32512e-05
0.000743721
0
0
-0.000535579
0
-0.000483942
0
0
0
0
-0.000397774
0
-0.000371249
0
0
-0.000358073
-0.000350962
-0.000353793
-0.000347878
0
-0.00032387
-0.000308085
-0.000289736
0.000263798
0
-0.000227405
2.88339e-06
0.000222568
0.000225161
0
-0.000233759
0
0
0.000462235
0.000455349
0
0
0.000618369
-0.000599008
0
1.33755e-06
0
0.00033432
-0.000319437
-0.000304745
0
0
0
0.00024155
0
-0.000208469
0
0
0.000160784
0
0
0
-0.000210977
-9.2636e-05
0
-6.46721e-07
0
-4.69928e-05
4.10249e-05
-2.94588e-05
1.68796e-05
0
4.51296e-07
-3.40976e-07
0
0
4.44651e-05
4.89163e-05
5.66775e-05
7.00966e-05
-8.35638e-05
0
0
0
0
-0.000221706
0
0
-0.000381368
0
0.000299661
0
0.000305741
0
0.000360398
0
0.000325839
0
-0.000338288
-0.000682773
0.000333638
0
-0.000345207
-0.000360799
0
-0.000362854
-0.000361771
0.000366646
-0.000381205
0.00039844
0.00042313
0
0
-6.13407e-06
0
0.000421744
0.00040898
0
0
0.000389531
-0.000388774
0
0
0
0.0003883
0.000364327
0
-0.000359014
0
0
0
0
-0.000334707
-0.000339349
-0.000669299
0.000631096
0.000607866
0.00058935
0
0.00104117
0
0
0
0
0.000489335
0
0
-0.000459183
0
0
-1.9587e-06
-0.000818847
-0.000423946
-0.000384984
0.000402073
0.00084129
-0.000430469
2.34977e-06
0
0
0
-0.000431576
-0.000448068
-0.000478621
1.39528e-06
0
0
0
0
-0.000588583
0
0
-0.000598267
-0.000611521
-0.000625704
0.000641989
0.000624209
-0.00273868
-0.0037385
0
0.00204304
0
-1.8605e-05
0.00103163
0.000836928
0
0.000606254
0
0
0
0.000461476
0
0
-0.000422965
0
0
0.000377393
0
0.000363036
0
0.000709583
-0.000356174
-5.39788e-06
-5.25925e-06
0.000337104
0.000314376
0.000597637
-4.19192e-06
0
0
0.000455922
-0.000219741
-0.000223505
-0.00023199
0
0.000712177
-0.000469624
-0.000462358
-0.000454954
-0.000447872
0
0.000429202
-0.000825961
0.000397178
0.000380038
-0.000724402
0
0
0
0
0.00029102
0
0
-0.000243984
0
0.000425916
0
-0.000183626
0
0
0
0
0.000112817
0
9.02862e-05
-1.96999e-07
0
5.75326e-05
-4.80134e-05
3.69176e-05
0
0
1.38701e-05
-3.21573e-06
0
0
-0.00011265
0
-0.000158607
-6.72085e-05
7.97179e-05
0.000169791
0
0
0
-1.34973e-06
-0.000217177
0
-1.56612e-06
0
-0.000252729
-0.000278466
0.000286598
0
-0.000317856
0
0.000323364
0
0.000317104
0.000304218
-0.000319839
0
0.00063572
0
0
0
0
0
0.000355662
-0.000351316
-0.00037926
0
0
-6.57214e-06
0
0.000398435
-0.000751266
0
0.000726618
-0.00109325
0
-0.00081162
0
0
-0.000385655
-0.000369938
0.000740867
0.000724006
0
0
0
0
0
0
0.0012506
0
5.25493e-06
-0.000555691
0.000527282
-0.000501692
0
0
0
0
0.000454149
0
0.000504469
0.00093193
-0.000418754
0
0.000424405
0.000408003
0.000445849
0.000379312
-0.000398516
-0.000419148
0.00042749
-0.000771657
0
0
-0.000434821
0.000404242
0
0.000967442
-0.000456113
0
0
0
0.00116073
0.00114609
0
0
0
0.00117256
0.00122019
-0.00125233
0
0
0.00363777
0
0.00211668
0
0.00125306
-0.000989429
0.000809268
0
-0.000553216
0
0
0
-0.000411259
0.000416778
0
0.000762525
-0.000373043
0
-0.000347812
0
-0.000341848
-0.000350973
-0.000702042
0.000718147
0.0003637
0.00108236
-0.000339502
0.000645217
-0.000898246
0.000274904
0
0.000481337
-0.000460174
-0.000463917
0
0
0.000482715
-0.000473309
0.000941068
0.000927548
0
0
0
1.17148e-06
-8.94387e-07
-0.000392989
-0.00037402
0.000716655
0
0
0
0.000302132
-1.29473e-07
0
0
0
0
-1.42354e-07
0
0.00036759
0
0
0
0
0
-0.000109327
-0.000195086
8.2128e-05
0
0.000132938
-0.000106583
0
5.2466e-05
-3.95113e-05
-5.08631e-05
0
0
0
4.91411e-05
6.07036e-05
0.000181849
0
-0.000140604
1.71249e-06
-0.000152061
-0.000173501
0
0.000341152
0.000377953
0
0.000196957
0
0
0.000231177
2.76178e-06
-0.000282145
0
0
-0.000578522
0
4.63431e-06
0
0.000288853
0
-0.000301013
0
0
-0.000320928
0
0
0
0.000341695
0.000374583
0
0.000775901
0.000397383
-0.000789246
-0.000389409
-0.00036954
0.000670176
1.31144e-05
0.000693327
0.000759785
0.00154096
-0.000749314
0
-0.000774198
-0.000747087
-0.000734866
1.22325e-05
0
0
0
0
0
0
-0.00120786
0
-0.00114479
0
-0.00105913
0
0.00050525
0
-0.000497148
0
-0.00086282
0
-0.000499893
2.0476e-06
0.000780141
0
0
0
0
-0.00037224
0
0
0
0.00120507
0.000806181
0
0.00042699
-0.000381677
-0.000866331
-0.00094124
-0.000905521
-0.000891872
0.00102007
0
1.14918e-07
-0.00227483
0
0
0
-1.27899e-05
-1.68743e-05
0.00129285
0
0.00277345
-0.00377552
0
-0.00208143
0
-0.00122537
0
-0.000741018
0
0.000522165
0
0
0
-0.000381437
-0.000367891
0
-0.000349159
0.000342648
0
0
0
0
0.000344025
0.000351243
-0.000359764
0
-0.000695764
0.000667686
-0.001241
0.00057574
0
0
-0.000488529
0
0.000485922
-0.000494481
0
-0.000987552
0
-0.000480086
-0.0004656
0.000454197
0
0
-0.000416087
-1.23666e-08
0.000386531
-0.000371008
-5.57056e-07
0
0
-0.000310802
-0.000297017
-0.000282661
-0.000267801
0
0
0
-0.000209248
0
-6.99707e-07
-0.000169855
0.000158682
0
-0.000264474
0.000244527
0.000331711
0.000292815
0
0
-0.000135394
0.000115723
0
-6.9409e-05
4.48919e-05
3.98248e-05
0
0
-1.15534e-05
0
-4.91511e-05
-7.33673e-05
-8.37037e-05
0.00010548
-0.00011362
0.000109419
0.000273695
0
-0.000157973
-0.000174746
0
0
0
0.000244144
0
-0.000226621
0.000264194
0
0
0.000264604
0
-0.000543746
0
0
0
-0.000298542
0
0
0.00091994
0
0
0
-0.00102057
-0.000356518
0
-0.000742067
-0.000758664
0.00146274
-0.000741716
0.0006787
1.39468e-05
-0.000638891
0
-0.000693761
-0.000722579
0.000664893
0
-1.4006e-05
0.00141444
0
-0.000693273
0
0
0
0
0
0
0.000570018
0
0.000575722
-0.000562546
0.000547813
0
-0.000508219
0
-2.46915e-06
0
-2.22382e-06
0
0
-0.000439296
-0.000384075
0
0.000862131
0
0
0
0
0.000836239
0
-0.000887286
6.9455e-06
-0.000856548
0
0
0.0008689
0.000944434
0.000941916
-4.77199e-06
-0.00105351
0
-0.00114906
0.00226847
0
0
0.00112947
-0.00230949
-1.3807e-05
0
0
-0.00305669
0.00395237
-0.00281955
0
0
-9.11271e-06
0
0
0
8.71173e-06
0
0
0
0.000365297
0.00073224
0
0
0
0.000714739
0.000722951
-0.000725835
-0.000724841
0
0
0
0
0
8.30088e-06
0.000602919
0
0
0
0
0
0
0.00051813
0
0.000511472
0
0
0
-0.000459192
0
0
0
1.22472e-06
0
0.000728883
-0.000349893
0
0
0.00030383
-0.000287892
0
0.000261946
0.000246758
0
0
0
0
-0.000178923
0.000168631
-0.000157392
0.000280873
0.000515628
-0.000248889
-0.000228569
-0.00020214
0
0
0
0
0.000100424
0
0
0
-1.66503e-05
0
-2.99658e-06
0
4.80069e-05
0
7.20541e-05
0
0
0
-0.000123432
0
0
-0.000177611
-0.000185248
-0.000175071
0
3.92622e-06
0
0.000220463
0
0
-0.000229198
0
0
0.000276647
0.000274471
0
0
0.000281336
-0.000597285
0
-0.000586711
0
0
-0.000633878
0.000671653
0.000699546
0
0
0.000699719
-0.000675119
0.000688609
-0.000698057
-0.000649679
-0.000622149
-0.000608141
0
0.000692974
0.000642598
0
0.000656675
1.44631e-05
0.000698507
0
0
0
0
0
0
-0.00058274
0
-0.00055786
0
0.000561511
0
0
-0.000521575
0
0.000958644
0
0.000429268
0
0
0
0
0
-0.001776
0.000804279
0.000767567
0
-0.000852035
-0.000829556
0
0
8.1708e-06
0.000949194
0
0.000892114
0
-0.000908725
0
0.00202661
0
0.0010873
0
-0.00113056
0
0
-0.00120504
0.00116222
-1.07684e-05
-0.00129711
0
0
0
0.00269809
0
0
0.00101693
0
0.000624358
0
0.000456137
0
0
0
0
-0.000711269
0.000742407
0
0
-0.000736236
-0.000728432
-1.17623e-05
0.000717003
0
0
0
0
0
-0.00127281
0
0
0
0
0.000566009
0.00055967
0
0
0.000537716
0
0
-0.000496765
0
0
0
0
0
2.98421e-06
-0.000372975
-0.00035886
0
-0.000322882
0
0
0.000281585
-0.000529211
0
-0.000239754
0
0
0
0
0
0
0.000296969
-0.000273791
-0.000252778
-0.000234954
0.00021189
0
0
0
0
-0.000111047
-0.000100763
8.29588e-05
-5.61359e-05
0
4.40854e-05
0
3.20463e-05
5.76088e-05
-0.00012419
0
0
-0.000112611
0.000111084
-0.000128501
0.00013776
0
0
-4.39669e-06
0.000188904
-4.2864e-06
0
4.57546e-06
-0.000221997
4.97983e-06
0
0
0.000212885
0
0
0.000531938
0.000268075
0
0
0
0.000559933
0
0
0
0
0.00121392
-0.000670388
1.79146e-05
0.000692034
0
-0.000667786
0
0.000661373
0.000657373
0
0.000597101
0.00114398
0
-0.000640479
-0.00126411
0
0
-0.00126748
1.47642e-05
0
0
0
-0.000612696
0
0
0.00112356
0.000536127
0.000531213
0
0
-0.000581237
0
-0.000543391
0
-0.000487224
0
-0.000874785
-0.000875583
0.000987571
0
0
0
0.000915045
9.70702e-06
-0.000810615
0
0.000872613
0
0
0
-0.000928687
0
-0.00095136
-0.000944952
0
0.000988622
-0.0009931
7.79172e-06
-0.00107413
5.89616e-06
0
0.00114033
0
0
0
-0.00121091
-7.80144e-06
0.00257717
0
-0.00292106
-0.00322715
0
0
0
0
0
-0.000560151
0
8.9366e-06
-0.000779662
0
0
0
0
-0.00149236
0
0
0
0
0.00155259
0
0
0
0.000734674
0
0
0.00067766
0
0.000641206
0
0
-0.000609237
-0.00118632
0
0
-0.000552386
0
0.00051073
0.000496651
-0.000473228
0
0
0
0
0.00038304
0.000365413
0
0
0.00031541
0
0
0
0.000511793
0
0
0.000420644
0
0.000371178
0
0
0
-0.000283427
-0.000259411
0.000233446
6.12567e-06
-0.000203828
0
0
0
0
9.78774e-05
7.25766e-05
-6.81724e-05
5.5013e-05
3.17897e-05
-1.85887e-05
0
0
5.02892e-06
-4.97113e-06
-7.37839e-05
8.48629e-05
-5.12321e-06
-0.000103203
0.000247963
-0.000131427
0
-0.000157439
0.000160709
0
0.00017485
0
0.000194452
-0.000212447
-0.000209097
0.000444544
0
0
-0.000442688
0
-0.000491622
-0.000504084
0
-0.000518144
0
0
0.000563538
0
0
0
1.91058e-05
0.000629944
-0.000630431
-0.000622594
0
0.00126771
-0.000640543
-0.000643724
0.00064674
0
-0.000609396
-0.00057689
-0.000620197
0
0.000653972
0
0
0.00126244
-0.000643853
0
0
0
0.000611506
0
0
-0.00056277
-0.000530748
-0.00105693
0.00109253
-0.00110667
0.000549882
0
0.000998605
0
0
0
0.00090056
0.0017434
-0.000949682
-0.000948978
0.00093397
0.000924588
-0.00090449
1.13356e-05
0
0
0.000885327
0
-0.000905956
0
0
0.000954199
0.00189314
0
0
-0.00217474
0.00106409
-0.00107664
0.00107597
-0.00116908
-0.00116324
-0.00232759
0
0
0
0.0012569
-0.00123373
-0.00125124
0
0.00246339
0.00285766
0
0
0
0
0
0
0
-0.000854222
0.000800228
0
0
-0.000743076
0
0.00151981
-0.000779752
0
0
0
-0.000810596
-0.00080676
0
0
-0.000768355
0.000748015
0
0
-0.000712099
-0.00070034
0
0
0
0.000623076
0
0
-0.000550713
-0.000528912
-0.000514339
0
0.000470338
0
0
0
-0.000763045
0
-0.00068529
0
0
-0.000592759
0
-0.000529711
0.000502333
0
0.000454317
0.000425519
-0.000409736
0
-0.000707933
0
0
0.000274454
0
8.37143e-06
-0.000235835
8.01916e-06
0
0
0
0
9.49696e-05
0
-5.89274e-05
0
0
-4.14496e-05
-1.96319e-05
0
0
-6.18019e-05
0.000159071
-5.86797e-06
-9.63761e-05
0.00010242
-0.000115155
-0.000127264
-0.000157403
0
0.000502677
0.00033463
0
0
0
-0.000796511
0.000433365
-0.000455299
-0.000425752
0
0
0.000441468
0
0
0.000500215
0
0.000506202
0.000569661
0
-0.000560365
0
0
0
-0.00118361
-0.000629177
0
0
0
1.77723e-05
0.00121952
-0.000643359
-0.000605958
-0.000627036
0.00120997
0.00061805
0.000605635
0
0
0
0
-0.00129973
-0.000637115
-0.000632779
0
0
0
0
0
0
0
0.00106632
-0.00105314
0.00103206
0
0
0
0.000901437
0
0
0
-0.000876735
0
0.00183453
-0.000946439
-0.000940921
0.000923883
1.2899e-05
0
0
-0.00178727
0
0.00198625
0.00105212
0
-0.000975459
-0.000960045
0
0
0.0022003
-0.00111291
-0.00112386
0
0
0.00117257
0.00118524
-0.00120654
0
0
0
0
0
0
0
-0.00516042
0
0
-0.00177085
0.00135574
0
0.000929607
0
0
0
0
0
0.000697355
0
-0.000702857
4.75198e-06
0
-0.000777195
0
-0.000794624
0.0007998
0
0
0
-0.000738487
0.000707452
0
0.000682922
0
0
0.000609538
0
0
0
-0.000528698
0.000519239
0.000499135
0
0
0
0
-0.00077614
-0.000745882
0.00140449
0
0.000646732
0
0
0.00056795
0
0.000507829
-0.000949022
0
-0.000858193
-0.000400128
0
0
0.000324262
0
0
-0.00027592
0.000280005
0.000261547
0.000209455
0.000427935
0.000209415
0
0
0
-6.62502e-05
2.32468e-05
0
0
0
0
6.96584e-06
0
0
0
-0.000171197
-6.53433e-06
0
0.000242032
0.000132838
0
0.000571655
0
-0.000348621
-0.000302852
0.000269675
0
0
0.000432651
0
0.000471804
0
0.000502214
-0.00046822
0
0
-0.000424959
1.6692e-05
0
-0.000511473
-0.000529575
0.000614051
0
-0.000528579
0
-0.000579449
0.000578275
0.000609574
0
0
0
-0.000556005
-0.00112063
0.00116616
0
0.000602745
-0.00112516
1.64976e-05
0.000599265
-0.000655481
0.000681257
0
0
0.000636314
0.0005973
0.000611354
0
0
0
0
0
0
0.00104929
-0.00104077
-0.0010014
0.000978425
0
0
0
-0.000846808
-0.000834318
0
0.00083813
0
0
-0.00169401
0
0
-0.000908065
-0.00175583
0
0
-1.46264e-05
-0.000932297
1.38813e-05
1.37641e-05
-0.00108395
-0.00103037
0.00102699
0
0
-0.00107898
0.00111108
0.00226801
-0.00114123
0
0
-0.00245772
0.00374345
-0.00256288
-0.00259895
0
0.00255852
0
0
0
0.00907045
0.00298311
0
0.00302281
-3.72713e-05
-0.000940854
-2.71142e-05
0.000735742
0
0
-0.000648355
0
-0.000704431
0
0
0.0015641
0
0.000808417
0
0.000804767
0
0
0
0
0
-0.00140555
0
0
0.000650419
0
-0.00123567
0
0
0
-0.000506243
0
0
-0.000900659
0
0
0.000776997
2.53491e-05
2.45892e-05
-0.000706867
-0.000650635
0
0
0
0
0
0
0.000901141
0.000413129
0.000876423
0
0
0
0
0.000318081
0
0.000293374
-0.000288598
0
-9.77427e-06
-0.000371916
-0.000412049
0
-0.000101835
0
0
-2.06916e-05
2.52375e-05
0
0
0
6.82139e-06
0
0
-0.000128632
5.81448e-05
0.000119968
0
-0.000623158
0.000307836
0
-0.000387168
0
0
0
1.09826e-05
0
0
-0.000411931
0
0
0
-0.000546435
0.000955553
-0.00047567
-0.000419752
0.000500085
-0.000560385
0
-1.73707e-05
0.000663862
-0.000641836
0.000622739
0.000531918
0.000601695
-1.97901e-05
0
0
0.000716003
0
-0.000683716
0.000626435
0.000633518
1.71283e-05
0
0
0.000601019
1.65842e-05
-0.000667941
0.000704795
-0.000724133
0
0
0
0
0
0
0
0
0
0
-0.0010688
-0.0010681
0.00218561
0.00215631
-0.00106574
-0.00105213
0
0
0
0.00183643
0
-0.000877366
0
0
0.000862249
0.000907453
0
0.00181865
0.00183134
0
0
0.00095564
0.000988
-0.0010218
1.5134e-05
-1.51102e-05
-1.51537e-05
1.52142e-05
0
0
0
0
-0.00117498
0.00118933
0
0
0.00256992
-0.00264708
-1.59182e-05
0.00265506
0
-0.00256963
-0.00252376
0
0
-0.00435439
-0.00290485
0
-0.00246948
-0.00187032
5.22039e-05
-0.00072492
-0.00122771
0.000527507
0.000576226
3.27418e-05
0
0.000681606
-0.000649333
-0.000660429
-0.000700902
0
0
0
0
0
0
0
0
-0.000652661
0.00067319
0
-0.000637354
-0.000636895
0
0.00115876
0
0
0
0.000985342
0
0
0.000908186
-0.000848982
0
-0.00078496
0.00144846
0.000720962
-0.000661789
2.34029e-05
-0.000544747
0.000528168
-0.000500582
0
0
0
-0.000414107
-1.61428e-05
-0.000449294
0
0
-0.000284119
-0.000235639
-1.18422e-05
0
-0.000553875
-0.000247996
0
-0.000198942
0.000320504
0.000144078
0.000144203
0.000102794
0
-8.12296e-05
0
-7.70189e-05
0
0.000116247
-2.55565e-05
6.81058e-06
0
-8.01252e-05
8.94506e-05
0
1.4164e-05
0.000234597
0.000317515
-0.000198968
0
-0.000329031
0
0
-0.000137345
-0.000217878
0
0.000351715
0.000544991
0
0
0
-0.000592984
-0.000442639
0.00106592
0.00116965
0.000709503
0.000684723
-0.0006581
0.000641934
-0.000734821
0
-0.000563683
0
-0.000525083
0.000501317
0
0
-0.000700224
0
0.00150052
1.70794e-05
0
-0.000533567
0
0
0.000699166
-0.00068377
-0.000766685
0.00143381
0.00136364
0
0
0
-0.00126725
0
0
0
0
0
0
0.00226365
0
-0.00253171
-0.00120054
0
0.00116341
0.00103311
0
0.00104523
-0.000994602
0
0
0
0
0.000884279
-0.00181411
0
-0.00093534
-0.000936073
0
0
0
0
0.00106534
-0.0021358
0.0010986
0.0022508
-0.00113284
-0.00115556
0
0
0
0
0
0
0
0
0
0.00558815
0
0
-0.00262931
0.00252005
0
0
-0.00353278
0
0
0.000987917
0.00075924
0.00115097
0.000494963
0.00053924
-0.000505145
-0.000921001
0.000437907
0
0
0.000919749
0.000509357
0
0
0
0
0
0
0
0
0.000516146
0.000567238
-0.000548125
0
0.000552471
0
-0.000493004
-0.000510078
0
-0.000442112
0
0
0
0
0
0.000803025
-0.000748699
0
-0.000683825
0
0.00134435
0.000624836
0.000561407
-0.00108226
0.000572892
0
0
0.000502189
0
-0.00084734
-0.000438061
0
0
0.000656013
0.000304847
-0.000321615
0
0.000254134
0.000267943
0
0
-0.000171262
7.34427e-05
-9.82037e-05
0
0
9.15536e-06
0
-0.000131648
0.000161384
-0.000121557
-6.85307e-06
-0.000271126
0
9.07257e-05
0
0
-0.000207201
-0.000168409
0
-0.000152068
0.000385634
0.000392598
0
0
0.000445069
0
0
-0.000352514
-0.000468911
0
-0.000556769
-0.000331561
0.00106705
0
-0.000467713
-0.000576786
1.7228e-05
1.72393e-05
0.000709202
0
0
0
-0.000609861
-0.000488516
0
0.000520037
-0.000628135
0
0
0
-0.000880027
-0.000704345
0
0
-0.000621844
0
-0.000738847
0
0.000807762
-0.00131599
-0.00105548
0
-0.00152497
0
-3.05741e-05
0
0
-0.00110969
0.00107885
-0.00110183
0
-0.00228762
0
0.00127367
0.00122976
-0.00124409
-0.00123077
-0.00106931
0
-0.00102751
-0.000976399
-0.000911244
0
0
0
-0.000850047
0.000941716
0.000967633
0.00102418
-0.000972829
0
0
0
0
-0.00107688
-1.76086e-05
-0.00113128
-0.00113848
0
-1.70779e-05
-0.00119336
0.00121868
0.00124107
0
0
0
0
-0.00265354
0
-0.00282055
0
0
0.00270767
0
0
0
0.00338078
0
0
-0.000599556
0
-0.000390081
-0.000327544
-0.000198076
0
0.000226259
0.000143489
0
-0.00017146
-0.000233484
0
0
0
0
0
0
0
0.000247101
0
-0.000655234
0
0.000393482
-0.000382125
0.000387864
-0.000387827
0.000423223
0
0
0.000401737
0.000387246
0.000382988
0
0
0
-0.000343882
0.000707779
-0.000658061
0
0
-2.19304e-05
0
0
0.00108452
0.000565779
0.000563036
0
-0.000502914
0
0.000453498
0.000442257
0
0
-0.000380456
0
0
0
0
-0.000294491
0.000312431
-0.000278563
0
-7.93994e-06
0
-0.000122233
0.000162509
0.000111309
0
0.000161119
-0.000195172
0
-6.93797e-06
-6.92582e-06
0
0
3.79347e-05
0
-4.62094e-05
0
0
0.00020993
1.17972e-05
0.000294346
0
0
-0.000268128
0
0
0
0
0
0.00086093
0.000316677
-0.000487787
0
0.000487241
0.00039707
-0.00106235
-0.000609028
0
0.000698009
0
0
0.000646906
0.000553354
0
-0.00117417
0.000670871
0
-0.000750229
0
0
0
0
0.00061486
-1.63443e-05
0.00089725
0
0
0.000833459
0
0.00057057
0
0.00140698
0
-2.82873e-05
0
0
0.00116423
2.25633e-05
0.00088945
0
0.00184684
0
-0.0010346
-0.0011008
0.00122808
-1.24818e-05
0
0
0.000989811
0.000856467
0.000751902
0.000736502
0
-0.00075373
-0.000795275
0.00100875
-0.00100622
-0.00105822
0.00101603
0
0
0
0.00108411
-0.00110908
0.0010974
0.00111856
0
0
0.0011699
-1.70552e-05
-0.00245307
-0.00124352
0
0
0.00131405
0
0.00266641
0.0013575
0
-0.00284527
0
0.00269879
0.00253751
0.00265214
0
0
0.0011247
0
0.000520668
-0.000221529
0
0
9.48877e-05
0
0
0.000133699
0
-0.000117786
-0.000155464
0.000136128
0
0
8.29576e-05
0
0
0
-3.49158e-05
0
0.000183716
0
0
0.00021926
-0.000238692
0.000274295
0
0
0
0
-0.000358063
-0.000359135
0
-0.000333996
0
0.000334799
-0.000318495
0.000641482
0
0.000305603
-0.000936786
0
-0.000584016