/*--------------------------------*- C++ -*----------------------------------*\
  =========                 |
  \\      /  F ield         | OpenFOAM: The Open Source CFD Toolbox
   \\    /   O peration     | Website:  https://openfoam.org
    \\  /    A nd           | Version:  8
     \\/     M anipulation  |
\*---------------------------------------------------------------------------*/
FoamFile
{
    version     2.0;
    format      ascii;
    class       volScalarField;
    location    "200";
    object      wpod_0;
}
// * * * * * * * * * * * * * * * * * * * * * * * * * * * * * * * * * * * * * //

dimensions      [0 1 -1 0 0 0 0];

internalField   nonuniform List<scalar> 
12225
(
-9.81479e-20
5.32338e-19
-3.10641e-20
-4.05832e-20
2.12866e-19
1.44664e-20
3.56423e-21
9.35124e-20
4.58798e-20
-2.61998e-21
-3.40955e-20
3.04659e-20
4.56068e-20
-1.41926e-20
3.72781e-20
3.64888e-20
-1.48985e-20
-2.30128e-20
-2.15085e-20
-3.6082e-21
1.25921e-20
1.06652e-20
1.36007e-20
-8.61737e-21
4.15498e-21
2.79324e-22
9.28931e-21
-5.82689e-21
1.05425e-21
-1.24861e-21
1.51602e-21
-4.18945e-21
-8.89162e-21
-1.09145e-20
-7.92221e-21
3.47594e-21
-9.95583e-22
2.07567e-21
7.5448e-21
5.41277e-21
-1.73437e-21
-8.52609e-21
6.14938e-21
-9.12597e-21
-1.258e-21
4.53532e-21
2.61439e-21
-6.40865e-21
-1.17085e-21
4.41824e-21
-7.53873e-21
4.94706e-21
4.55573e-21
1.3849e-21
-2.34761e-21
1.94867e-22
-3.03752e-21
-3.06589e-22
-1.16173e-21
-1.53238e-21
-3.6526e-22
3.71684e-21
5.3655e-22
-5.49357e-22
-3.03681e-21
1.4323e-21
-3.17119e-21
-1.66405e-21
2.79543e-21
-1.42267e-21
9.72962e-22
-1.55753e-21
3.51423e-21
1.76365e-21
7.71655e-22
-3.75498e-22
-9.24409e-22
-7.97835e-22
-3.7842e-22
3.09307e-22
-5.27265e-22
-4.13738e-22
2.19543e-22
-1.82911e-22
-7.03043e-22
-2.36625e-22
4.47121e-22
1.7105e-22
-7.06514e-23
-6.05362e-23
-1.26435e-22
8.93799e-23
6.78894e-23
3.72345e-23
1.42787e-23
-5.64417e-23
-3.38799e-24
-9.36556e-23
-4.01703e-23
1.27877e-23
1.21925e-23
9.22463e-24
5.27577e-24
0
0
0
0
0
0
0
0
0
0
0
0
0
0
0
0
0
0
0
0
0
0
0
0
0
0
0
0
0
0
0
0
0
0
0
0
0
0
0
0
0
0
0
0
0
0
0
0
0
0
0
0
0
0
0
0
0
0
0
0
0
0
0
0
0
0
0
0
0
0
0
0
0
0
0
0
0
0
0
0
0
0
0
0
0
0
0
0
0
0
0
0
0
0
0
0
0
0
0
0
0
0
0
0
0
0
0
0
0
0
0
0
0
0
0
0
0
0
0
0
0
0
0
0
0
0
0
0
0
0
0
0
0
0
0
0
0
0
0
0
0
0
0
0
0
0
0
0
0
0
0
0
0
0
0
0
0
0
0
0
0
0
0
0
0
0
0
0
0
0
0
0
0
0
0
0
0
0
0
0
0
0
0
0
0
0
0
0
0
0
0
0
0
0
0
0
0
0
0
0
0
0
0
0
0
0
0
0
0
0
0
0
0
0
0
0
0
0
0
0
0
0
0
0
0
0
0
0
0
0
0
0
0
0
0
0
0
0
0
0
0
0
0
0
0
0
0
0
0
0
0
0
0
0
0
0
0
0
0
0
0
0
0
0
0
0
0
0
0
0
0
0
0
0
0
0
0
0
0
0
0
0
0
0
0
0
0
0
0
0
0
0
0
0
0
0
0
0
0
0
0
0
0
0
0
0
0
0
0
0
0
0
0
0
0
0
0
0
0
0
0
0
0
0
0
0
0
0
0
0
0
0
0
0
0
0
0
0
0
0
0
0
0
0
0
0
0
0
0
0
0
0
0
0
0
0
0
0
0
0
0
0
0
0
0
0
0
0
0
0
0
0
0
0
0
0
0
0
0
0
0
0
0
0
0
0
0
0
0
0
0
0
0
0
0
0
0
0
0
0
0
0
0
0
0
0
0
0
0
0
0
0
0
0
0
0
0
0
0
0
0
0
0
0
0
0
0
0
0
0
0
0
0
0
0
0
0
-0.000344551
0.00050972
0
0
0
-0.00031637
0
0
0
0
0.000209823
0
0
0
0
0.00015473
0
0
0
0
0
0
0
0.000108837
-0.000104938
0.000101359
9.79262e-05
0
0
-8.88441e-05
-8.61966e-05
0
0
-7.92477e-05
0
0
7.34711e-05
0
7.01738e-05
0.000137318
0
0
0
0
0
0.000121909
0.000119762
0.000117676
0
-0.000113756
0
0.000110186
0.000108493
0
0
0
0.000102326
0
0
0
0
0
0
0
0
-9.11477e-05
0
0
8.79902e-05
8.71367e-05
0
-8.52093e-05
8.41641e-05
0
-8.26783e-05
0
0
7.98516e-05
0
-7.82396e-05
0
7.68852e-05
7.61044e-05
7.54357e-05
0.000149102
-0.000148223
0
0
0
-0.000142381
-0.00014155
0.000140327
0
-0.000137926
-0.00013681
-0.000136054
0
0
0
-0.000131332
0
0
0.000127428
0
0
0.000124073
0
0
-0.000121365
-0.000120955
0
0.000118335
0
-0.000117376
0
-0.000115849
-0.000114262
0
0
0
0
0
0
0
-0.000106983
0.000106439
0
0
0
0
0.000203817
0
-0.000200542
0.000195405
0
0
0
-0.000185695
-0.000184268
0
-0.000182827
-0.000181771
0.00018214
0
0
0.000176843
0
0
0
0
-0.000163153
-0.000160816
0
-0.000161566
0
0
-0.000151115
0
-0.000153928
0
0
-0.000143535
0
-0.000139834
0
0
0
0.000134918
0
-0.000127244
0
0
0
0
0
0
0
0.00022556
0
0
0.000940753
-0.0010659
0
0.000478088
0
0.00019094
-0.000355272
-0.000335229
0
-0.000304743
-0.000145411
0
0
0
0
-0.000120253
0
0.000227323
0
0
-0.000207876
0
0.000196341
-9.48733e-05
9.16199e-05
-8.84629e-05
-8.55425e-05
0
0
7.68874e-05
-7.45207e-05
0
0
6.83742e-05
0
0
-6.39023e-05
0
6.14911e-05
-0.000120587
0
0
-0.000228711
-0.000225022
-0.000220926
0.000109103
-0.000107494
-0.000317263
0.000208934
0.00010283
0
-9.98781e-05
9.86559e-05
0
0
0
-9.47446e-05
0
0.00018433
0
0.000180422
0
-0.000176678
0
0.000173998
-8.61853e-05
0
-0.000169386
-8.43719e-05
-8.35908e-05
0
-8.22741e-05
-8.1299e-05
0
8.02096e-05
-0.000158822
0
-7.79587e-05
0
0.000228985
0
-0.000227744
-7.52185e-05
7.48766e-05
0.000147971
-0.000146986
0
0
0
0.000426216
0.000141707
-0.000142286
0
-0.000139002
0.000139105
0.000139243
0
0
0
0.000134346
0
-0.00026353
-0.00038788
0.000260645
0
0.00012544
0
0.00024782
-0.000122223
-0.000124255
0
-0.000358886
0.000242189
0.000123111
0
0.00012049
0.000354516
0
0.000237787
0.000227451
0.000224923
0
0
0
-0.000112753
-0.000114541
0
-0.000212324
-0.000216397
0
-0.000220598
-0.000421258
0.000212704
0.00020348
0
0
0
0.000187247
-0.000184381
-0.000366245
0.000190247
-0.000196698
-0.000198973
0
0
0.000193191
0
0
-0.000353457
0
-0.000170477
0.000163786
0
-0.00017572
0
0
0.000155447
-0.000320971
0.000166772
0
0
-0.000149252
0
-0.000144774
0
0
0
-0.000141788
0
0.000130641
0
0
-0.000258402
0.000270332
0
0
0
-0.000686735
0
0.000505355
9.67377e-07
0.00107033
0
-0.000614162
0
0
-3.19167e-07
0.000191363
0.000183259
0.00017488
0
0
-0.000161805
-0.00032053
0.000316203
0
0.000301468
-0.000146095
0
0.000286926
0.000141488
-0.000277218
-0.000136519
0
0.000260346
0.00025221
0
0.00023814
0
0.000225918
0.000109621
0
0
0
0
0
0
0.000197944
-0.000293427
0
0
0
-1.2511e-07
0.000183623
0.00036067
-0.000357996
-0.000177338
0.000173978
9.18041e-08
0.00016929
0
0.000164204
7.3685e-08
0
0
-0.000161915
0
0
0.000155677
0.000310463
-0.000153606
0
0.000151149
0
0.00014877
0.000146854
-0.000293532
-0.000145664
0
0.000287912
0
0.000431923
0.000285385
0.000280706
-0.000277109
0.000414302
0
0
-0.000270373
-0.000399652
0
0.000132539
0
-0.000398296
1.85447e-08
-1.61664e-08
0.00025952
0
-0.000254365
1.40421e-08
0
0
0
0.000247118
0
0
0
0
0
0.000241976
0
0.000233518
0.000229849
-0.000232176
0
-0.000225385
0
-0.000223006
0.000219406
0.000667714
0
0.000648375
0.000215428
0
0.000434888
0.000431045
-0.000641948
0
-0.000209006
-0.000203115
-0.000619934
0
0
0
-0.00019945
0
0
0.000194079
0.000193626
0
0
0.000381895
0
-0.000367588
-0.000374526
0
0
0.00035187
1.28228e-08
3.88728e-09
0
0.000711577
0
0
0
-0.000345033
0
0.00064371
0.00031509
0
0.000316602
0
0
0.000936766
-0.000599013
0
-0.000567455
0.000286053
0
0
0
0.000820038
0
0.000263947
0
0
0
0
0
0
0.000502689
0
0.000239756
-0.000728195
0
0
0.00046727
0.000413853
-0.000438378
-0.000448622
-0.00143191
-0.0013864
-0.000675158
-0.000260501
0
0.000354455
-0.000158305
0
-0.000139114
0
0.000258878
0
0.000124107
0.000244564
-0.000242759
0
-0.000234801
0
0
-0.00022308
0
-3.40983e-07
0
0
3.00646e-07
-0.000205856
-0.000201796
-0.00019761
0
-0.000383827
0
-0.000186341
0
0
0.000182267
0
-0.000176975
1.68794e-07
0.000349299
-0.000346934
0
0
-0.000168376
0
-0.000165043
0.000163508
0.000162185
0
-0.000159509
-0.000158009
0.00031282
-0.000154804
-0.000153692
0
0
0.000150793
0
0
-0.000294478
-0.000292613
0
0
0
0
-0.000282144
0.000279771
0.000278759
0.000553268
0
5.8174e-08
0
-0.000270222
4.39392e-08
-0.000266381
0.000264271
3.62965e-08
0
0.000259607
0.000257543
0.000511067
0
-0.000252651
0
0.000500421
-0.000249027
0.000246659
-0.000246318
-0.000490011
0.000242343
-0.000241595
0
0.00047756
0
0.000470092
-0.00046868
-0.000467882
0.000462781
0.000460927
0
0.000228762
0
0
0.000445108
0
0
0.000437089
0
0
0
-0.000853277
0
-0.000838604
-0.00041608
-0.000417822
-1.51143e-08
-0.000410901
0.000819755
0.00040514
0
0.000395592
0.00079282
0
0
0
1.35971e-08
0
0
0
0
-0.000744276
0
0.000732146
0
0.00071241
0.000355771
-0.000700503
0.000692931
0.000343802
-0.000339291
0.000335588
0
0.000335729
0
0
0
0.000643241
0
-1.05458e-07
0
0
0.000610761
0
0
-0.000588925
1.10352e-07
0
0.000559476
0.000553991
0
0
-0.000537711
-1.10781e-07
0
-0.000512979
0
0
0
0.000485393
0
0
-0.000483662
0
0
0.000917614
0
0
-0.000432901
-0.000815292
0.000413542
0
0.000854962
0.000823655
0.000609766
0.000472885
0
-0.000648624
-7.7455e-07
0
0
0
-0.000240159
0
0
0
0
0
0.000217964
0.000213909
0
0
-0.000205239
0.000405205
0
0.000197612
-0.000194263
0
0.000564451
-0.00037217
0.000368274
0.000181921
0
0.000537953
0
0
-0.000174641
0.000346596
0.000514127
-0.000509371
-0.000168359
0.000334139
0
0
-3.01695e-07
0
-0.00032078
-0.000318125
-0.000315885
0
0.000311119
0
-0.000613016
0
0.00030212
0
-0.000297646
0
0
0
0
0
0
0
-0.000281956
0
0
-0.00027612
0
-0.000272513
-0.000270803
-0.000269124
0
0
-0.000263948
0.000524772
0
-0.000775499
0
-0.000255869
0
-0.000252756
-0.000501204
0.00024925
0
-0.000246516
0.00048939
0
0
0.000482114
0
-0.000476258
0
-0.000469191
0
-0.000927857
0.000462284
0.000920198
-0.000457382
-0.000454129
0
-1.10945e-08
0
0.000443501
-0.000440937
0
0
-0.000432375
0.000429959
0
0
0.000421124
0
0.000415672
0
0.000410783
-0.000406768
0.000810308
-0.000403278
-0.000399114
0
-0.000392515
-0.000389836
0
0
-0.00076664
0.000381732
-0.000754648
0
0
0
0.00145675
0
-0.000718349
0
-0.000702795
0
0.000692288
-0.00068438
-0.000677328
0.000671334
0
0
-6.4627e-08
0
0
0
-0.000624261
0
-0.000610987
0
-0.000599307
-0.00059585
0.000588015
0
-0.000572344
0.000566712
0
0.000552747
-0.00109242
0
-0.00105997
0.000525222
-0.000518686
0
0.000502868
0
0
0
-0.000475523
0
0
0
0
0
-0.000440989
0
-0.000830977
0
0.000807917
0.000795089
0
0
-0.000744319
0
0
0
-9.94623e-07
-8.85662e-07
-0.000261236
0
0
0
0
0
-0.000440063
0
0.000428421
-0.000210887
-0.000208046
0
0
0.000199897
-0.000197346
0
-0.000191781
0.00037789
0
-0.00036519
0.000362129
-0.000358762
0
0
-0.000350812
0
0
0.00034358
-0.000682463
-0.000337707
0.000669512
-0.000331712
0
0
0
0.000321777
0
0.000316685
0.000314146
0.000311762
0.000309685
-0.000307357
0
0.000303209
0
2.06053e-07
0
0.000589851
0
-0.000291266
0
0
-0.000570769
0
0
0.000279746
0
0
-0.000548887
0
0.000541255
0.000269104
0
-0.00053264
0
0.000524261
-0.00104241
0
0.000515113
0
0
0.000506851
0
0.000500556
-0.00049676
0
0
-0.000487944
0.000485121
0.000482639
0.000481684
0
0.000475508
0.000470421
0
0
0.000464504
0
-0.000457887
0
0.000452947
0
-1.34911e-08
0
-0.000441557
0
0
0
0
-0.000429553
0
0
-0.000843194
0
0
0
-0.000816415
0
-0.000804205
0
0.000797792
-0.000790225
0
0.000776813
0
0
0.00152473
-0.000760426
0.000748812
0
0
0
-0.00144263
0
0.000710839
0
0
0
0
0.000683074
0
-0.000670699
0.000660304
0.000653471
-0.000647133
0
0
0
0
0
0
0
0.000595885
0
-0.00058428
0
0.00170132
0
-0.00110779
-0.000549297
0.000543366
0
0.00105571
0
0.00102531
0
0
0
0
0
-0.000944549
-0.000927005
0
0
0
0
0.000863151
0
0.00165437
-0.000814981
-0.000803054
-0.000784852
-0.000765272
0
0.000664211
0
0.000837664
0.000695664
-0.000302296
-0.000272902
-0.000254554
-0.000481764
0
0
0.000442916
0
0.000853898
0
-0.000417134
0
0
0.000400996
0
0.000391757
0
0
0
9.09403e-07
0
0
0
0
0
0
-0.000345691
0
0.000339785
5.85925e-07
0.000334511
0
-0.000329257
0.000325603
0
0
0
0
0
0
-0.000311002
0.00030908
-0.000306599
0.000609686
0
-0.000601434
0.000597451
0.00029694
0
-0.00029253
0
0.000289111
0
0
0.000566464
0
-0.000560504
0
0
0
0.00109211
0.000542571
-0.00053984
-0.000536966
0
0.000530692
0
-0.000522044
-1.11045e-07
0
0
-0.000510857
0
-0.00050494
0
0.000500131
0.000495613
0
0
0
-0.00048334
-0.000480797
-0.000480597
0
0
-0.000470925
-0.000468086
0
0
0
0.000911709
0
-0.000451144
0
0.000445774
0
-0.000881698
-0.000874443
0.000868233
0
0
-0.000857997
0
-0.000848707
3.13895e-08
0.00083745
0
0
0.000817391
0
0
0.00080175
-0.000797085
0.00157965
0
-0.000776754
0
0
-0.00152265
0.000759834
0
0
0
0
0.00071716
-0.00071397
-0.000706357
0
0
0
-0.000691824
-0.00136872
0
0.00200625
-0.000656929
-0.000651104
0
0.00127649
0
0
0
0
0.00120906
0
0
0
0
0
-3.17596e-07
-0.00111222
0.00110203
-0.00109582
0
0.00106728
0
-0.00103101
-0.0010196
0
0
-0.000979163
-0.000964939
-0.000956253
2.57222e-07
0.000918084
0
0
0
-0.000867123
-0.000854557
0
-0.00164167
-7.68344e-08
-1.96394e-07
0.000782275
0.00151684
0.00125959
0
0
-0.00154335
-0.000646969
-2.43275e-06
0.000515984
-2.04993e-06
0.000462702
0
0
-0.000426884
0
-0.000412397
0
0
0
0
-0.000391758
0
-0.00038074
0
0
-0.000366887
-0.000360172
-0.000355567
-0.000352825
0
-0.000348046
-0.000343893
-0.000341282
0.000338159
0
-0.000332518
6.57268e-07
0.000329554
0.00032755
0
-0.000321236
0
0
0.000631862
0.000628206
0
0
0.000923109
-0.000918033
0
6.48851e-07
0
0.0005955
-0.000591935
-0.000587823
0
0
0
0.00057455
0
-0.000566801
0
0
0.000556588
0
0
0
-0.00108545
-0.000539222
0
-1.84382e-07
0
-0.000527305
0.000523623
-0.00052041
0.000517639
0
-0.000510637
-9.31158e-08
0
0
-0.000502476
-0.000499629
-0.000496999
-0.000492821
0.000489141
0
0
0
0
0.000953382
0
0
0.00140276
0
-0.000919531
0
-0.000910612
0
-0.000903028
0
-0.000888647
0
0.000879744
0.00175032
-0.000869165
0
0.0008619
0.000858839
0
0.000850205
0.000841362
-0.000836486
0.000828403
-0.000825865
-0.000816245
0
0
-8.06882e-08
0
-0.000789083
-0.00078572
0
0
-0.000761005
0.000759576
0
0
0
-0.000735193
-0.000729717
0
0.000717664
0
0
0
0
0.000691218
0.000685251
0.00134938
-0.0013365
-0.00131793
-0.0013032
0
-0.00254975
0
0
0
0
-0.00120174
0
0
0.00116437
0
0
-3.63234e-07
0.00222407
0.00110183
0.00109433
-0.00108372
-0.00213117
0.00105093
3.63949e-07
0
0
0
0.000976741
0.000961102
0.000949876
3.15136e-07
0
0
0
0
0.00086163
0
0
0.000821956
0.000804955
0.000799503
-0.000778367
-0.000756626
-0.00112959
-0.00103616
0
0.00068973
0
-2.62432e-06
0.000492614
0.000462362
0
0.000431719
0
0
0
0.000395871
0
0
-0.000385895
0
0
0.000373707
0
0.000366043
0
0.000708177
-0.00034995
-1.07699e-06
-1.03125e-06
0.000340618
0.000338292
0.000672774
-8.69777e-07
0
0
0.000655202
-0.000325102
-0.000323702
-0.000322364
0
0.000951089
-0.000632646
-0.000628996
-0.000624134
-0.000620214
0
0.000612156
-0.00121596
0.000604626
0.000601544
-0.00119524
0
0
0
0
0.000579739
0
0
-0.000569478
0
0.00112584
0
-0.000556557
0
0
0
0
0.000540034
0
0.000533342
-1.9923e-07
0
0.000525
-0.00052197
0.000518731
0
0
0.00101691
0.000505746
0
0
0.00149862
0
0.00148535
0.000491329
-0.000488187
-0.000973613
0
0
0
2.83268e-08
0.000945148
0
5.55669e-09
0
0.000920602
0.000913836
-0.000908174
0
0.00089995
0
-0.000887915
0
-0.000879243
-0.000874474
0.000869989
0
-0.00172493
0
0
0
0
0
-0.000831603
0.000826407
0.000815833
0
0
-9.18549e-08
0
-0.000788787
0.00156829
0
-0.00153888
0.00227647
0
0.00151048
0
0
0.000734909
0.00073033
-0.00143606
-0.00143113
0
0
0
0
0
0
-0.00268522
0
3.38643e-07
0.00130511
-0.0012851
0.00127138
0
0
0
0
-0.00119803
0
-0.00117147
-0.00232088
0.00114492
0
-0.00112501
-0.0011097
-0.00110519
-0.00109438
0.00108079
0.00106198
-0.00105044
0.00207024
0
0
0.000988961
-0.000971942
0
-0.00188691
0.000932938
0
0
0
-0.00174141
-0.00171724
0
0
0
-0.00160503
-0.00158755
0.00154313
0
0
0.000913016
0
0.000639988
0
0.000494808
-0.000461695
0.00044362
0
-0.000415716
0
0
0
-0.000383443
0.000382091
0
0.00074792
-0.000371374
0
-0.000361487
0
-0.000349498
-0.000345631
-0.000681587
0.000677207
0.000335884
0.00100182
-0.000331342
0.000662725
-0.000987117
0.00032652
0
0.000650354
-0.000642866
-0.000641312
0
0
0.000630833
-0.00062517
0.0012483
0.00124129
0
0
0
9.57788e-07
-9.0796e-07
-0.000598599
-0.000594173
0.00118252
0
0
0
0.000578444
5.80719e-07
0
0
0
0
4.28375e-07
0
0.00110438
0
0
0
0
0
-0.000534485
-0.00106154
0.000528363
0
0.00104746
-0.00104031
0
0.00102793
-0.00102464
-0.00152192
0
0
0
-0.000994462
-0.000987915
-0.00196461
0
0.000970415
-7.34435e-08
0.000962646
0.00095598
0
-0.00190012
-0.0018886
0
-0.000928615
0
0
-0.000914167
3.06041e-08
0.000908047
0
0
0.0017783
0
5.50408e-08
0
-0.000868716
0
0.000861025
0
0
0.000845761
0
0
0
-0.000824347
-0.000813622
0
-0.00160885
-0.000798917
0.00158135
0.000788153
0.00078288
-0.00155323
2.37439e-07
-0.00152052
-0.00151509
-0.00300019
0.00148748
0
0.00146855
0.0014512
0.0014312
2.74071e-07
0
0
0
0
0
0
0.00266675
0
0.00262908
0
0.00255674
0
-0.00125365
0
0.00122777
0
0.00239671
0
0.00117107
4.55597e-07
-0.00228296
0
0
0
0
0.00108862
0
0
0
-0.00309829
-0.00202759
0
-0.000985483
0.000966122
0.00190496
0.00187822
0.00185597
0.00181498
-0.00180317
0
7.26689e-07
0.00342246
0
0
0
8.4731e-08
-1.3634e-07
-0.0015371
0
0.000932272
-0.000822354
0
-0.000602623
0
-0.000475554
0
-0.000425341
0
0.000404324
0
0
0
-0.000375193
-0.000368538
0
-0.000358652
0.000353869
0
0
0
0
0.000334707
0.000331438
-0.000328354
0
-0.000646331
0.000650881
-0.0013006
0.000646459
0
0
-0.000637809
0
0.00063071
-0.000629425
0
-0.00124183
0
-0.000615061
-0.000611814
0.000610123
0
0
-0.000597251
-9.69746e-07
0.000590408
-0.000588266
8.23076e-07
0
0
-0.000576036
-0.000572477
-0.000569445
-0.00056683
0
0
0
-0.000554561
0
4.00046e-07
-0.000546893
0.000543684
0
-0.0010751
0.00106872
0.00159584
0.00158695
0
0
-0.00104251
0.00103608
0
-0.00102432
0.00101887
0.00101142
0
0
0.000999172
0
0.000983908
0.000977407
0.000973796
-0.000968055
0.000961451
-0.000954862
-0.00189787
0
0.00094481
0.000942034
0
0
0
-0.000917426
0
0.000909456
-0.000907618
0
0
-0.000888584
0
0.00175493
0
0
0
0.000860392
0
0
-0.00253364
0
0
0
0.00246711
0.000814744
0
0.00161506
0.00160166
-0.00317063
0.00157477
-0.00156305
2.79934e-07
0.00154739
0
0.00151768
0.00149983
-0.00148956
0
-2.86733e-07
-0.00289785
0
0.00142714
0
0
0
0
0
0
-0.00132353
0
-0.00131157
0.00129701
-0.00127856
0
0.0012528
0
-4.85271e-07
0
-4.8313e-07
0
0
0.0011598
0.00114337
0
-0.00224082
0
0
0
0
-0.0021097
0
0.00205032
9.92057e-07
0.00200354
0
0
-0.00190031
-0.00186665
-0.00184731
-8.75779e-07
0.00178992
0
0.00173499
-0.00341335
0
0
-0.00163273
0.00317625
-2.40503e-08
0
0
-0.00085098
0.000741801
-0.00063012
0
0
-3.19362e-06
0
0
0
2.69492e-06
0
0
0
0.000360402
0.00071557
0
0
0
0.000695877
0.000691604
-0.000683307
-0.000672981
0
0
0
0
0
2.50331e-06
0.000637668
0
0
0
0
0
0
0.000619257
0
0.000614584
0
0
0
-0.000602183
0
0
0
-1.02659e-06
0
0.00116532
-0.000578764
0
0
0.000570352
-0.000568256
0
0.000561813
0.000559432
0
0
0
0
-0.000546325
0.000543377
-0.000540181
0.00107541
0.00213629
-0.0010612
-0.00105755
-0.00105201
0
0
0
0
0.00102681
0
0
0
-0.00100544
0
1.79251e-07
0
-0.000985456
0
-0.000973115
0
0
0
0.000953013
0
0
0.000939138
0.000932733
0.000927928
0
3.04947e-08
0
-0.000908461
0
0
0.000892925
0
0
-0.000874946
-0.000871416
0
0
-0.00086004
0.00171068
0
0.00168839
0
0
0.00164956
-0.00164491
-0.00163337
0
0
-0.0016026
0.0015885
-0.00157413
0.00156098
0.00155416
0.00154562
0.00152109
0
-0.00150019
-0.00148843
0
-0.00146508
3.31258e-07
-0.00143723
0
0
0
0
0
0
0.00134426
0
0.00131037
0
-0.00129466
0
0
0.00125229
0
-0.0024566
0
-0.00119627
0
0
0
0
0
0.00446131
-0.00219059
-0.00217788
0
0.00213656
0.00211062
0
0
1.07142e-06
-0.0019939
0
-0.00191274
0
0.00185111
0
-0.00358959
0
-0.00175217
0
0.00170074
0
0
0.00162629
-0.00158393
8.72568e-08
0.00153073
0
0
0
0.000537344
0
0
0.000414611
0
0.000388485
0
0.000371163
0
0
0
0
-0.000692219
0.000688565
0
0
-0.000670386
-0.000668676
-3.69523e-06
0.000657418
0
0
0
0
0
-0.00125943
0
0
0
0
0.000619117
0.000617079
0
0
0.000608797
0
0
-0.000598894
0
0
0
0
0
-1.07612e-06
-0.00057936
-0.000575073
0
-0.000570139
0
0
0.000562231
-0.00112034
0
-0.00055458
0
0
0
0
0
0
0.00107381
-0.00106819
-0.00106211
-0.00105484
0.00104918
0
0
0
0
-0.00102521
-0.00102034
0.00101356
-0.00101156
0
0.002004
0
-0.000990449
-0.000987603
0.0019663
0
0
0.000962217
-0.000961329
0.00095793
-0.000955536
0
0
-1.06369e-08
-0.000932791
-3.12574e-08
0
3.80446e-08
0.000908621
5.84197e-08
0
0
-0.000893076
0
0
-0.00175016
-0.000871582
0
0
0
-0.00171206
0
0
0
0
-0.00330146
0.00164254
2.7693e-07
-0.0016241
0
0.00159453
0
-0.00157209
-0.00155914
0
-0.00154318
-0.00303657
0
0.00149798
0.00297225
0
0
0.00289543
3.69087e-07
0
0
0
0.0013837
0
0
-0.00268277
-0.00132453
-0.00131201
0
0
0.00128185
0
0.00124738
0
0.00122479
0
0.00238139
0.0023525
-0.00231664
0
0
0
-0.00222062
1.13349e-06
0.00217394
0
-0.00212696
0
0
0
0.00200472
0
0.00195575
0.00190649
0
-0.00184277
0.00183123
1.03323e-06
0.00176537
1.00783e-06
0
-0.00169422
0
0
0
0.00158879
2.08543e-07
-0.00305946
0
-0.000702136
-0.00058258
0
0
0
0
0
-0.000375331
0
6.35396e-06
-0.00073176
0
0
0
0
-0.00136224
0
0
0
0
0.00129372
0
0
0
0.00062999
0
0
0.000616751
0
0.000618838
0
0
-0.000606973
-0.00121112
0
0
-0.000596481
0
0.000593995
0.000589622
-0.000588842
0
0
0
0
0.000575076
0.000571795
0
0
0.000563318
0
0
0
0.0011095
0
0
0.00109588
0
0.00108626
0
0
0
-0.00106612
-0.00106298
0.00105828
-6.30491e-07
-0.00104482
0
0
0
0
0.00101861
0.00101442
-0.00100829
0.00100561
0.00100179
-0.000998084
0
0
-1.51635e-07
1.27545e-07
0.000973141
-0.000968739
7.89544e-08
0.000959621
-0.0019114
0.000951338
0
0.000939728
-0.000933854
0
-0.000923977
0
-0.000911688
0.000907413
0.00090319
-0.00179852
0
0
0.00177257
0
0.00175258
0.00174212
0
0.0017301
0
0
-0.00170032
0
0
0
2.98497e-07
-0.00164459
0.00163183
0.00161849
0
-0.00318318
0.00158024
0.00157397
-0.00156084
0
0.00153615
0.00151465
0.00150345
0
-0.00148538
0
0
-0.0028863
0.0014253
0
0
0
-0.00137905
0
0
0.00133801
0.00132356
0.00262166
-0.00260776
0.00257388
-0.00127909
0
-0.00248557
0
0
0
-0.00236423
-0.00466935
0.00230777
0.00228591
-0.00226613
-0.00223998
0.00221052
1.21048e-06
0
0
-0.00211319
0
0.00204536
0
0
-0.00197658
-0.00390075
0
0
0.00369344
-0.00183537
0.00178293
-0.00176314
0.00174628
0.00172083
0.00338008
0
0
0
-0.00158639
0.00156538
0.00152736
0
0.00061709
0.000478542
0
0
0
0
0
0
0
-0.000674626
0.000669986
0
0
-0.000663888
0
0.00130793
-0.000649494
0
0
0
-0.000625284
-0.000625783
0
0
-0.000616341
0.000615357
0
0
-0.00060643
-0.000602866
0
0
0
0.000594511
0
0
-0.000590953
-0.000589162
-0.000586562
0
0.000581027
0
0
0
-0.0011418
0
-0.00113165
0
0
-0.0011169
0
-0.00110984
0.00110478
0
0.00109451
0.00108983
-0.00108457
0
-0.00215105
0
0
0.00106176
0
-7.5023e-07
-0.00104784
-6.46321e-07
0
0
0
0
0.00101972
0
-0.00100901
0
0
-0.00099492
-0.00099041
0
0
0.000975791
-0.0019452
1.07918e-07
0.000964728
-0.000958225
0.000955518
0.000951114
0.000944389
0
-0.00280182
-0.00185936
0
0
0
0.00364111
-0.00180952
0.00179949
0.00178919
0
0
-0.00176217
0
0
-0.00173689
0
-0.00172181
-0.00171355
0
0.00169013
0
0
0
0.00329581
0.00163526
0
0
0
3.96537e-07
-0.00315144
0.00156556
0.00155396
0.00153968
-0.00305775
-0.00151116
-0.00150013
0
0
0
0
0.00287874
0.00142446
0.0014118
0
0
0
0
0
0
0
-0.00261193
0.00258919
-0.00255611
0
0
0
-0.00244358
0
0
0
0.00233055
0
-0.00455809
0.00226201
0.00223539
-0.00220262
1.29324e-06
0
0
0.00419638
0
-0.00406531
-0.00200957
0
0.00195136
0.00193804
0
0
-0.00368843
0.00182482
0.00178519
0
0
-0.00171277
-0.00168373
0.00165755
0
0
0
0
0
0
0
-0.00086577
0
0
-0.00075468
0.00068447
0
0.000609172
0
0
0
0
0
0.000611633
0
-0.000606606
-5.22879e-06
0
-0.000598514
0
-0.000590248
0.000583823
0
0
0
-0.000578533
0.000579738
0
0.000571315
0
0
0.000567161
0
0
0
-0.000558617
0.000554222
0.000551848
0
0
0
0
-0.00108554
-0.00108053
0.00214875
0
0.00106366
0
0
0.00105086
0
0.00104213
-0.00207705
0
-0.0020574
-0.00102531
0
0
0.0010112
0
0
-0.000997557
0.000994151
0.000989425
0.000985272
0.00196086
0.000978628
0
0
0
-0.000959651
0.000955667
0
0
0
0
-2.21867e-07
0
0
0
0.00183139
1.03861e-07
0
-0.00181295
-0.000904323
0
-0.00266619
0
0.00176497
0.0017573
-0.00175684
0
0
-0.00172237
0
-0.00170934
0
-0.00168492
0.00167471
0
0
0.00166544
2.87306e-07
0
0.00162225
0.00161664
-0.00161051
0
0.00159827
0
0.00157092
-0.00156183
-0.00156063
0
0
0
0.00149285
0.00299591
-0.0029683
0
-0.00146686
0.00293529
4.49401e-07
-0.00143849
0.00142767
-0.00141408
0
0
-0.00137742
-0.00136853
-0.00135833
0
0
0
0
0
0
-0.00252556
0.00251022
0.0024882
-0.00246029
0
0
0
0.00236755
0.00234474
0
-0.00228902
0
0
0.00444468
0
0
0.00214836
0.0042392
0
0
-1.4323e-06
0.00202165
1.41973e-06
1.41194e-06
0.001935
0.00191131
-0.0018956
0
0
0.00181859
-0.00179773
-0.00353607
0.00174057
0
0
0.00333053
-0.00492921
0.00322405
0.00319073
0
-0.00308799
0
0
0
0.00176727
0.000802353
0
0.00151123
9.3971e-06
-0.000688767
8.34596e-06
0.000683272
0
0
-0.00066138
0
-0.000658493
0
0
0.00128502
0
0.00063727
0
0.000632802
0
0
0
0
0
-0.00124585
0
0
0.00062074
0
-0.00122766
0
0
0
-0.000607425
0
0
-0.00119586
0
0
0.00118312
-2.82014e-06
-2.66773e-06
-0.00116543
-0.00116321
0
0
0
0
0
0
0.00225946
0.00112365
0.0022355
0
0
0
0
0.00109107
0
0.0010803
-0.00107673
0
6.82319e-07
-0.00211862
-0.00212472
0
-0.00105028
0
0
-0.0010361
0.00103967
0
0
0
-1.93371e-07
0
0
0.000987501
-0.000987268
-0.00296719
0
0.00395798
-0.0019723
0
0.00190185
0
0
0
1.70164e-07
0
0
0.00184579
0
0
0
0.00178766
-0.00357146
0.0017762
0.0017796
-0.00179591
0.00175425
0
-3.48448e-07
-0.0017267
0.00171543
-0.00172905
-0.00171192
-0.00170294
-3.91719e-07
0
0
-0.00162858
0
0.00159397
-0.00155034
-0.00157272
4.74888e-07
0
0
-0.00156653
5.04812e-07
0.00152613
-0.00151388
0.00148791
0
0
0
0
0
0
0
0
0
0
0.00263194
0.00262208
-0.0052582
-0.00517674
0.00255654
0.00252138
0
0
0
-0.00490172
0
0.00235826
0
0
-0.00228835
-0.002271
0
-0.00442748
-0.00436547
0
0
-0.00209332
-0.0020689
0.00203146
1.48199e-06
-1.46938e-06
-1.45369e-06
1.45459e-06
0
0
0
0
0.00178748
-0.00175559
0
0
-0.00334624
0.00330745
-2.11002e-06
-0.00318586
0
0.00310544
0.00304802
0
0
-0.000858607
-0.000759676
0
-0.00148703
-0.0014074
-8.90418e-06
-0.000671173
-0.00136001
0.000684516
0.000684123
-7.07009e-06
0
0.000678396
-0.000682251
-0.000683022
-0.000678163
0
0
0
0
0
0
0
0
-0.000674012
0.000668455
0
-0.000667378
-0.000662595
0
0.00131926
0
0
0
0.00129929
0
0
0.00128634
-0.0012866
0
-0.00127614
0.00254321
0.00126421
-0.00126271
-2.38031e-06
-0.00125349
0.00125031
-0.00124258
0
0
0
-0.00122291
1.46824e-06
-0.00121078
0
0
-0.00119614
-0.00117929
9.7924e-07
0
-0.00232282
-0.00116106
0
-0.00116282
0.00230903
0.00115135
0.00114208
0.00113955
0
-0.00114104
0
-0.00112036
0
0.00110932
0.00108716
-1.81828e-07
0
0.00108824
-0.00108005
0
-2.01792e-07
-0.00210661
-0.00213681
0.00214138
0
0.00206955
0
0
0.00204213
0.00206771
0
-0.00206944
-0.0039295
0
0
0
0.00192379
0.0019252
-0.00373198
-0.00375809
-0.00189508
-0.00185817
0.00188261
-0.00186326
0.00188395
0
0.00186685
0
0.00176242
-0.00169028
0
0
0.00168462
0
-0.00342191
4.37149e-07
0
0.00164289
0
0
-0.00162666
0.00162276
0.00161887
-0.0032095
-0.0031466
0
0
0
0.0030555
0
0
0
0
0
0
-0.00555736
0
0.00554987
0.0026975
0
-0.00266501
-0.00260198
0
-0.00258613
0.00256756
0
0
0
0
-0.00235674
0.00465904
0
0.00228593
0.00224645
0
0
0
0
-0.00207278
0.0040897
-0.00201489
-0.0039762
0.00195242
0.00192211
0
0
0
0
0
0
0
0
0
-0.00647328
0
0
0.00311875
-0.00304762
0
0
-0.000866566
0
0
0.000693851
0.000661475
0.00133269
0.000667017
0.000680932
-0.000695339
-0.00139058
0.000692204
0
0
0.00143787
0.000717899
0
0
0
0
0
0
0
0
0.000719208
0.000714324
-0.000716215
0
0.000709295
0
-0.000708802
-0.000704625
0
-0.00070268
0
0
0
0
0
0.00137862
-0.00137644
0
-0.00136266
0
0.00271192
0.00134865
0.00134471
-0.00268609
0.00133519
0
0
0.00131176
0
-0.00260946
-0.00130463
0
0
0.00257905
0.00126697
-0.00125668
0
0.0012548
0.00124592
0
0
-0.00125514
0.00124188
-0.00122285
0
0
-4.5349e-07
0
-0.0011995
0.00118104
-0.00117641
2.33122e-07
0.00233582
0
-0.00116973
0
0
0.00235645
0.00229563
0
0.00229789
-0.00218869
-0.00219845
0
0
-0.00437139
0
0
0.00220012
0.00208965
0
0.00209521
0.00209927
-0.00408146
0
0.00198836
0.00200318
2.72072e-07
3.16744e-07
-0.00201491
0
0
0
0.00197909
0.00193252
0
-0.00179167
0.00187773
0
0
0
0.00178166
0.00175723
0
0
0.00172003
0
0.00167625
0
-0.00171475
0.00339286
0.00332701
0
0.00316915
0
-1.05299e-06
0
0
0.00299334
-0.00298705
0.00295176
0
0.00582275
0
-0.00286984
-0.00278333
0.00281413
0.00278129
0.00273605
0
0.00266215
0.00263184
0.00257781
0
0
0
0.00244668
-0.00240238
-0.0023706
-0.00234649
0.00229605
0
0
0
0
0.00211749
-1.52847e-06
0.00204957
0.00202187
0
-1.50877e-06
0.00191406
-0.00189033
-0.00184449
0
0
0
0
0.00337051
0
0.00327185
0
0
-0.00311642
0
0
0
0.000747681
0
0
-0.000695543
0
-0.00069139
-0.000692215
-0.000722367
0
0.000734695
0.000747952
0
-0.000757095
-0.000754748
0
0
0
0
0
0
0
0.000765235
0
-0.00152264
0
0.000756472
-0.000757453
0.000756542
-0.000756313
0.000750811
0
0
0.000745252
0.000745474
0.000742669
0
0
0
-0.000736359
0.00146216
-0.00146474
0
0
2.54438e-06
0
0
0.00285008
0.00142354
0.00141012
0
-0.00139035
0
0.00139369
0.00139217
0
0
-0.00136966
0
0
0
0
-0.00132187
0.00133635
-0.00134554
0
5.82063e-07
0
-0.00132846
0.00135173
0.0013256
0
0.00127435
-0.0012695
0
2.52021e-07
2.0861e-07
0
0
-0.00126868
0
0.00124567
0
0
-0.00246955
-5.04717e-08
-0.0023434
0
0
0.00233272
0
0
0
0
0
-0.00445382
-0.00223994
0.00217317
0
-0.00211146
-0.00214637
0.00424803
0.00210216
0
-0.00206583
0
0
-0.00209002
-0.00206935
0
0.00391886
-0.00199923
0
0.00190868
0
0
0
0
-0.00183213
-3.78255e-07
-0.00181011
0
0
-0.00173998
0
-0.00173073
0
-0.00334715
0
-1.02647e-06
0
0
-0.00311278
1.13202e-06
-0.0031113
0
-0.00606203
0
0.00296648
0.00289378
-0.00292041
-1.44361e-06
0
0
-0.0027533
-0.00271134
-0.00266854
-0.00260506
0
0.00253971
0.00251642
-0.00246799
0.0024445
0.00239358
-0.00234529
0
0
0
-0.00218924
0.00215888
-0.00212307
-0.00208759
0
0
-0.00198323
-1.4862e-06
0.00383259
0.00186407
0
0
-0.00176027
0
-0.00340516
-0.00167582
0
0.00321873
0
-0.00311596
-0.00304947
-0.00301128
0
0
0.00055046
0
0.000612326
-0.000646352
0
0
-8.47409e-06
0
0
-0.000769609
0
0.000786159
0.000795163
-0.000798518
0
0
-0.00080351
0
0
0
4.03633e-06
0
0.00160525
0
0
0.00079679
-0.000797234
0.000796611
0
0
0
0
-0.000785869
-0.000783458
0
-0.000782675
0
0.000776703
-0.000773862
0.0015447
0
0.000769953
-0.0022951
0
-0.00151976
2.16199e-06
2.03933e-06
-0.00298751
0
0.00147487
0
0
0.0014788
0
0
0
0.00144827
0
-0.00142617
0
0.00140443
-0.00142656
-7.29328e-07
0
-0.00141535
0
0.0014238
-0.00142403
-0.00140545
0
0
-0.00134845
0
-0.00131877
-0.00131683
0.00133082
0
0.00132826
0
-0.0026047
0
0
-0.00129176
0.00372927
0.00246797
0.00123928
0
0
-0.00243562
0
0
-0.00238183
-0.00240298
1.18796e-07
0
0
0.00235409
0.00229342
1.28994e-07
-1.57106e-07
0
0
2.14205e-07
0
0.00222397
0
-0.00217377
0
-3.13166e-07
-0.00207154
-0.00207492
-0.00202754