/*--------------------------------*- C++ -*----------------------------------*\
  =========                 |
  \\      /  F ield         | OpenFOAM: The Open Source CFD Toolbox
   \\    /   O peration     | Website:  https://openfoam.org
    \\  /    A nd           | Version:  8
     \\/     M anipulation  |
\*---------------------------------------------------------------------------*/
FoamFile
{
    version     2.0;
    format      ascii;
    class       volScalarField;
    location    "200";
    object      wpod_2;
}
// * * * * * * * * * * * * * * * * * * * * * * * * * * * * * * * * * * * * * //

dimensions      [0 1 -1 0 0 0 0];

internalField   nonuniform List<scalar> 
12225
(
7.58935e-16
8.33797e-17
-1.0696e-17
-1.14006e-18
1.30324e-17
3.57751e-18
-5.25776e-20
5.01238e-18
2.34807e-18
-2.91339e-20
-1.75419e-18
1.71267e-18
2.77676e-18
-9.11593e-19
1.8509e-18
1.99992e-18
-1.06786e-18
-1.21749e-18
-1.26446e-18
-3.84144e-19
5.58449e-19
5.95729e-19
7.08501e-19
-7.06405e-19
1.41626e-19
-1.1751e-19
6.72375e-19
-3.61428e-19
1.49467e-19
4.73747e-20
7.99018e-20
-3.19624e-19
-4.54232e-19
-7.75653e-19
-4.71217e-19
1.03267e-19
1.00706e-19
7.0613e-20
4.3215e-19
4.15967e-19
-2.52044e-19
-5.94324e-19
3.74707e-19
-5.62128e-19
-4.69766e-20
2.61849e-19
1.12581e-19
-4.05838e-19
-7.86956e-20
2.9562e-19
-5.41939e-19
3.23091e-19
3.55209e-19
9.9489e-20
-2.62115e-19
-5.31823e-20
-1.97587e-19
-6.90683e-21
-1.05619e-19
-1.58577e-19
-1.77214e-21
3.5631e-19
4.9431e-20
-7.73876e-20
-2.03132e-19
5.69777e-20
-2.51443e-19
-8.6067e-20
2.01936e-19
-1.22477e-19
7.1259e-20
-1.06096e-19
2.58882e-19
1.17648e-19
4.1014e-20
-3.26393e-20
-6.89776e-20
-6.7522e-20
-3.76038e-20
2.49918e-20
-3.6325e-20
-2.80672e-20
2.98359e-20
-1.89255e-20
-5.99439e-20
-1.61448e-20
4.4678e-20
1.24604e-20
-1.36938e-21
-1.00847e-21
-7.11806e-21
1.06567e-20
6.96146e-21
3.87226e-21
-7.00862e-22
-4.53264e-21
-2.88576e-22
-1.09514e-20
-4.6786e-21
1.42561e-21
1.34481e-21
1.10628e-21
6.11889e-22
0
0
0
0
0
0
0
0
0
0
0
0
0
0
0
0
0
0
0
0
0
0
0
0
0
0
0
0
0
0
0
0
0
0
0
0
0
0
0
0
0
0
0
0
0
0
0
0
0
0
0
0
0
0
0
0
0
0
0
0
0
0
0
0
0
0
0
0
0
0
0
0
0
0
0
0
0
0
0
0
0
0
0
0
0
0
0
0
0
0
0
0
0
0
0
0
0
0
0
0
0
0
0
0
0
0
0
0
0
0
0
0
0
0
0
0
0
0
0
0
0
0
0
0
0
0
0
0
0
0
0
0
0
0
0
0
0
0
0
0
0
0
0
0
0
0
0
0
0
0
0
0
0
0
0
0
0
0
0
0
0
0
0
0
0
0
0
0
0
0
0
0
0
0
0
0
0
0
0
0
0
0
0
0
0
0
0
0
0
0
0
0
0
0
0
0
0
0
0
0
0
0
0
0
0
0
0
0
0
0
0
0
0
0
0
0
0
0
0
0
0
0
0
0
0
0
0
0
0
0
0
0
0
0
0
0
0
0
0
0
0
0
0
0
0
0
0
0
0
0
0
0
0
0
0
0
0
0
0
0
0
0
0
0
0
0
0
0
0
0
0
0
0
0
0
0
0
0
0
0
0
0
0
0
0
0
0
0
0
0
0
0
0
0
0
0
0
0
0
0
0
0
0
0
0
0
0
0
0
0
0
0
0
0
0
0
0
0
0
0
0
0
0
0
0
0
0
0
0
0
0
0
0
0
0
0
0
0
0
0
0
0
0
0
0
0
0
0
0
0
0
0
0
0
0
0
0
0
0
0
0
0
0
0
0
0
0
0
0
0
0
0
0
0
0
0
0
0
0
0
0
0
0
0
0
0
0
0
0
0
0
0
0
0
0
0
0
0
0
0
0
0
0
0
0
0
0
0
0
0
0
0
0
0
0
0
0
0
0
0
0
0
0
0
0
0
0
0
0
0
0
0
0
0
0
0
0
-0.000431923
-0.00136461
0
0
0
0.00101095
0
0
0
0
-0.000368028
0
0
0
0
-0.000150594
0
0
0
0
0
0
0
-7.13132e-05
6.70015e-05
-6.09851e-05
-5.41709e-05
0
0
3.93321e-05
3.59072e-05
0
0
2.81039e-05
0
0
-2.27243e-05
0
-1.95082e-05
-3.64888e-05
0
0
0
0
0
-2.48031e-05
-2.35788e-05
-2.23909e-05
0
2.02523e-05
0
-1.80886e-05
-1.72052e-05
0
0
0
-1.41294e-05
0
0
0
0
0
0
0
0
1.1302e-05
0
0
-1.06271e-05
-1.00837e-05
0
9.33355e-06
-9.23035e-06
0
8.75912e-06
0
0
-9.41378e-06
0
8.92983e-06
0
-8.06142e-06
-7.90512e-06
-7.99212e-06
-1.6704e-05
1.52439e-05
0
0
0
1.53077e-05
1.27896e-05
-1.21148e-05
0
1.11036e-05
1.00842e-05
8.26283e-06
0
0
0
6.26033e-06
0
0
-4.73349e-06
0
0
4.82347e-07
0
0
-8.21816e-06
-1.14932e-05
0
1.64463e-05
0
-2.47177e-05
0
-3.07537e-05
-3.32632e-05
0
0
0
0
0
0
0
-5.41617e-05
5.70952e-05
0
0
0
0
0.000140012
0
-0.000153352
0.000147239
0
0
0
-0.000170713
-0.000176149
0
-0.000189464
-0.000196044
0.000206829
0
0
0.000212854
0
0
0
0
-0.000220193
-0.00021322
0
-0.000227953
0
0
-0.000218134
0
-0.000236451
0
0
-0.000218108
0
-0.000212008
0
0
0
0.000202084
0
-0.000188635
0
0
0
0
0
0
0
0.00030761
0
0
-0.000491033
0.00323878
0
-0.000224141
0
2.71608e-05
-9.95222e-05
-0.000121262
0
-0.000140569
-6.98507e-05
0
0
0
0
-3.43654e-05
0
3.15334e-05
0
0
-2.71981e-05
0
2.87318e-05
-5.36903e-06
-2.30515e-06
5.31239e-06
6.30094e-06
0
0
-6.68478e-06
5.79118e-06
0
0
-4.33689e-06
0
0
3.20054e-06
0
-2.97556e-06
5.6569e-06
0
0
1.02965e-05
1.01367e-05
1.03237e-05
-4.19338e-06
3.64764e-06
1.14624e-05
-6.23313e-06
-2.96706e-06
0
1.38249e-06
-1.9706e-06
0
0
0
1.52053e-06
0
-7.79889e-06
0
-1.07611e-05
0
1.36709e-05
0
-1.39733e-05
7.73071e-06
0
1.47618e-05
5.83246e-06
6.04686e-06
0
1.68122e-06
1.17403e-06
0
-3.49293e-06
1.04134e-05
0
4.37551e-06
0
-6.91762e-06
0
-9.54516e-07
-6.10092e-07
8.94562e-07
-8.95531e-07
-1.76845e-07
0
0
0
-2.25918e-06
2.64711e-06
-7.38478e-06
0
-2.92288e-06
7.22645e-06
9.6842e-06
0
0
0
7.1525e-06
0
-1.55284e-05
-6.22308e-06
1.83694e-05
0
6.29908e-06
0
1.85902e-05
-6.50647e-06
-1.45666e-05
0
-3.88907e-05
3.40294e-05
2.50552e-05
0
2.18803e-05
5.89304e-05
0
6.0008e-05
3.91274e-05
5.02011e-05
0
0
0
-3.22304e-05
-4.02554e-05
0
-5.08855e-05
-6.76695e-05
0
-9.07261e-05
-0.000142124
9.24806e-05
6.08336e-05
0
0
0
7.52688e-05
-6.84521e-05
-0.0001374
8.49551e-05
-0.000100425
-0.000117288
0
0
0.000112364
0
0
-0.000174644
0
-9.11108e-05
7.09581e-05
0
-9.30504e-05
0
0
6.71512e-05
-0.000192422
0.000103988
0
0
-5.72578e-05
0
-4.58753e-05
0
0
0
-5.6169e-05
0
6.28414e-05
0
0
-8.59565e-05
0.000161492
0
0
0
-8.82518e-05
0
0.000225605
3.1878e-06
-0.00238969
0
0.000356574
0
0
-1.1896e-06
-1.02571e-05
8.83755e-06
1.67779e-05
0
0
-3.31027e-05
-7.74165e-05
8.28009e-05
0
7.33861e-05
-3.09227e-05
0
7.08975e-05
3.58531e-05
-6.72366e-05
-3.34972e-05
0
4.85711e-05
3.71264e-05
0
2.65419e-05
0
2.30703e-05
1.10144e-05
0
0
0
0
0
0
1.73825e-05
-2.5656e-05
0
0
0
2.35487e-07
1.10881e-05
1.60495e-05
-2.31094e-05
-1.1264e-05
7.51479e-06
-2.19532e-07
8.95859e-06
0
1.11192e-05
-2.16907e-07
0
0
-1.51601e-05
0
0
5.66753e-06
1.26591e-05
-4.8753e-06
0
1.86241e-06
0
2.62708e-06
-7.3093e-07
5.39816e-07
1.24004e-06
0
-2.02371e-06
0
2.72062e-05
1.79518e-05
1.19484e-05
-3.41202e-06
5.22185e-06
0
0
-5.05235e-06
-2.04566e-07
0
2.43275e-06
0
-3.15856e-05
-5.11518e-07
5.16121e-07
1.73778e-05
0
-7.06292e-06
-5.0883e-07
0
0
0
9.39323e-06
0
0
0
0
0
1.96948e-05
0
1.8626e-05
7.11306e-06
-1.64979e-05
0
-1.71483e-05
0
-1.65264e-05
9.35535e-06
6.35908e-05
0
7.54636e-05
2.23139e-05
0
6.29891e-05
5.66505e-05
-8.954e-05
0
-3.97701e-05
-2.56581e-05
-0.000132492
0
0
0
-3.97769e-05
0
0
3.55891e-05
3.94524e-05
0
0
0.000104623
0
-8.22682e-05
-0.000109015
0
0
0.000105687
1.05378e-06
9.65213e-07
0
0.000251447
0
0
0
-0.000143008
0
0.000193179
9.13169e-05
0
0.000120589
0
0
0.000326288
-0.000144095
0
-0.00014296
0.000116989
0
0
0
0.000177629
0
3.03895e-05
0
0
0
0
0
0
0.000150466
0
3.48652e-05
-0.000266384
0
0
0.000131397
-3.92264e-05
-5.82152e-05
-0.000164211
0.00199236
0.00248785
0.000556367
0.000150543
0
-0.000172684
6.45803e-05
0
3.22215e-05
0
-2.39716e-05
0
-1.2294e-06
7.41826e-06
-1.93674e-05
0
-2.14143e-05
0
0
-2.29284e-05
0
-4.89419e-07
0
0
1.99289e-07
-2.39697e-05
-2.30409e-05
-2.44947e-05
0
-6.30897e-05
0
-3.08989e-05
0
0
3.23969e-05
0
-3.01243e-05
-2.19877e-07
5.55104e-05
-5.08861e-05
0
0
-2.28601e-05
0
-2.1866e-05
2.1574e-05
2.09471e-05
0
-2.04194e-05
-2.12548e-05
4.31427e-05
-2.13715e-05
-2.07887e-05
0
0
2.16251e-05
0
0
-4.02192e-05
-4.084e-05
0
0
0
0
-3.54267e-05
3.10714e-05
3.25897e-05
6.09126e-05
0
-5.67809e-07
0
-3.09031e-05
-5.91285e-07
-3.05686e-05
2.93096e-05
-6.05671e-07
0
2.52776e-05
2.57882e-05
4.69999e-05
0
-2.21265e-05
0
5.31972e-05
-2.64724e-05
2.37402e-05
-2.84315e-05
-5.21812e-05
2.21937e-05
-2.22575e-05
0
4.87226e-05
0
4.08823e-05
-4.4709e-05
-5.09398e-05
4.41051e-05
4.5788e-05
0
2.40764e-05
0
0
4.5802e-05
0
0
5.36694e-05
0
0
0
-0.000115165
0
-0.000131564
-6.32367e-05
-7.87209e-05
-8.88673e-07
-6.9427e-05
0.000146326
7.33463e-05
0
7.25514e-05
0.000173286
0
0
0
9.41487e-07
0
0
0
0
-0.000201394
0
0.000201085
0
0.000189141
0.000103216
-0.00019178
0.000201177
0.000105224
-0.000107352
0.000108089
0
0.000115138
0
0
0
0.000235436
0
-1.76827e-06
0
0
0.000218037
0
0
-0.000208292
1.9053e-06
0
0.000163847
0.000191344
0
0
-0.000194702
-1.84986e-06
0
-9.83717e-05
0
0
0
5.18039e-05
0
0
-0.000145182
0
0
0.000269393
0
0
-0.000100204
-3.9963e-05
6.19877e-05
0
-0.00124525
-0.0011666
-0.000435088
-0.000261384
0
0.000321268
-2.04392e-06
0
0
0
2.0834e-05
0
0
0
0
0
2.0271e-05
1.85131e-05
0
0
-2.55018e-05
5.31341e-05
0
2.68775e-05
-2.4736e-05
0
7.63625e-05
-6.00325e-05
6.93504e-05
3.71799e-05
0
0.00012863
0
0
-4.20723e-05
8.24119e-05
0.000120119
-0.000113543
-3.58049e-05
6.71446e-05
0
0
5.63709e-07
0
-6.16508e-05
-5.91263e-05
-5.86142e-05
0
5.77235e-05
0
-0.000112794
0
5.3876e-05
0
-5.19186e-05
0
0
0
0
0
0
0
-4.76992e-05
0
0
-4.58417e-05
0
-4.38839e-05
-4.24284e-05
-4.15151e-05
0
0
-4.01106e-05
7.95355e-05
0
-0.000113447
0
-3.71667e-05
0
-3.68249e-05
-6.52057e-05
3.29473e-05
0
-3.55579e-05
6.84955e-05
0
0
6.81568e-05
0
-5.98214e-05
0
-6.36963e-05
0
-0.000120843
5.92482e-05
0.000123745
-6.03312e-05
-5.65374e-05
0
-1.21895e-06
0
5.90525e-05
-5.99102e-05
0
0
-6.4722e-05
6.48687e-05
0
0
6.88281e-05
0
7.27319e-05
0
8.10526e-05
-7.91014e-05
0.000162282
-8.21126e-05
-8.23795e-05
0
-8.46134e-05
-8.73334e-05
0
0
-0.000204566
0.000110571
-0.000209835
0
0
0
0.000430451
0
-0.000221356
0
-0.000220763
0
0.000226502
-0.000225763
-0.000231239
0.00023884
0
0
-1.39749e-06
0
0
0
-0.000233033
0
-0.000218713
0
-0.000219759
-0.000227408
0.000235953
0
-0.000221526
0.000211316
0
0.000200928
-0.000399691
0
-0.000373279
0.000205028
-0.000184364
0
0.000153085
0
0
0
-0.000111143
0
0
0
0
0
-0.000126381
0
-0.00020022
0
0.000200653
0.00018474
0
0
0.00081865
0
0
0
-1.88071e-06
-1.80738e-06
6.65581e-05
0
0
0
0
0
-3.87091e-05
0
6.0074e-05
-3.07366e-05
-3.15191e-05
0
0
3.38629e-05
-3.38407e-05
0
-3.02765e-05
5.37045e-05
0
-5.2267e-05
6.59204e-05
-7.71408e-05
0
0
-9.64061e-05
0
0
9.09129e-05
-0.000181753
-8.97492e-05
0.000174857
-8.09405e-05
0
0
0
7.38074e-05
0
7.06242e-05
6.84452e-05
6.75526e-05
6.53988e-05
-6.4126e-05
0
6.09872e-05
0
-8.25901e-07
0
0.000111666
0
-5.51191e-05
0
0
-0.000106504
0
0
5.23493e-05
0
0
-9.97172e-05
0
9.27232e-05
4.68206e-05
0
-9.19664e-05
0
8.97979e-05
-0.000176586
0
8.68368e-05
0
0
7.8764e-05
0
7.57307e-05
-6.97188e-05
0
0
-7.54236e-05
7.27025e-05
7.33909e-05
7.39708e-05
0
6.74194e-05
5.85681e-05
0
0
7.13742e-05
0
-6.84404e-05
0
6.10522e-05
0
-1.35223e-06
0
-6.65449e-05
0
0
0
0
-7.06731e-05
0
0
-0.000146021
0
0
0
-0.000150666
0
-0.000155916
0
0.000165247
-0.000160118
0
0.00017215
0
0
0.000417086
-0.000218682
0.000205251
0
0
0
-0.000435298
0
0.000226578
0
0
0
0
0.00023177
0
-0.000249879
0.00023643
0.000237937
-0.000239604
0
0
0
0
0
0
0
0.000232763
0
-0.000238334
0
0.00067519
0
-0.000421599
-0.000221919
0.00021321
0
0.000396712
0
0.000378165
0
0
0
0
0
-0.000306743
-0.000302192
0
0
0
0
0.000260082
0
0.000494822
-0.000277018
-0.000265882
-0.000270365
-0.000278752
0
-0.000622085
0
-0.000357275
-0.000258766
9.73694e-05
6.90041e-05
4.13426e-05
4.53354e-05
0
0
2.36701e-05
0
0.000106023
0
-7.64048e-05
0
0
7.93174e-05
0
8.03062e-05
0
0
0
8.91247e-07
0
0
0
0
0
0
-0.00010199
0
9.53661e-05
-2.97149e-07
9.18585e-05
0
-8.8997e-05
8.17536e-05
0
0
0
0
0
0
-6.7494e-05
6.71562e-05
-6.79403e-05
0.000130824
0
-0.000122854
0.000119354
5.72795e-05
0
-5.77855e-05
0
5.7078e-05
0
0
0.000109098
0
-0.00010667
0
0
0
0.000204878
9.88736e-05
-9.82447e-05
-9.37215e-05
0
9.61115e-05
0
-9.30081e-05
2.04541e-06
0
0
-8.52458e-05
0
-8.01121e-05
0
7.77764e-05
7.52353e-05
0
0
0
-7.30315e-05
-6.89375e-05
-7.08442e-05
0
0
-6.5212e-05
-6.57535e-05
0
0
0
0.000127025
0
-5.98987e-05
0
5.94249e-05
0
-0.000126663
-0.000113224
0.000120328
0
0
-0.000138662
0
-0.000136533
2.42982e-06
0.000148737
0
0
0.000149088
0
0
0.000152352
-0.000164171
0.000318709
0
-0.000174725
0
0
-0.000411789
0.00021563
0
0
0
0
0.000206516
-0.000215802
-0.000217531
0
0
0
-0.000235245
-0.000467236
0
0.000726621
-0.000223911
-0.000228993
0
0.000464679
0
0
0
0
0.000442673
0
0
0
0
0
-4.90444e-06
-0.000409968
0.000426722
-0.00044921
0
0.00040433
0
-0.00035354
-0.000368431
0
0
-0.00034584
-0.000326496
-0.000321912
3.75389e-06
0.000311276
0
0
0
-0.00027535
-0.000271586
0
-0.000505629
4.05423e-06
3.86134e-06
0.00029355
0.000551842
-0.00172367
0
0
0.000698115
0.000237683
-3.65692e-06
-9.62117e-05
-3.64963e-06
-1.92255e-05
0
0
-4.19602e-05
0
-6.41883e-05
0
0
0
0
-0.000100442
0
-8.83316e-05
0
0
-7.91007e-05
-7.52329e-05
-7.59293e-05
-8.49732e-05
0
-0.00010295
-0.000105434
-0.000106342
0.000104504
0
-9.57316e-05
-3.40561e-07
8.88115e-05
8.71084e-05
0
-7.99475e-05
0
0
0.00014004
0.00013558
0
0
0.000205026
-0.00020526
0
-2.16535e-06
0
0.000125501
-0.00012259
-0.000119142
0
0
0
0.000113596
0
-0.000109296
0
0
0.000108743
0
0
0
-0.000200905
-9.94382e-05
0
2.44754e-06
0
-8.99802e-05
9.02415e-05
-8.89701e-05
9.04832e-05
0
-8.54699e-05
2.31672e-06
0
0
-8.3589e-05
-8.45866e-05
-8.25111e-05
-7.67988e-05
7.06112e-05
0
0
0
0
0.000148253
0
0
0.000214137
0
-0.000120292
0
-0.000125727
0
-0.000117896
0
-0.000121521
0
0.000128714
0.00025134
-0.000122467
0
0.000138986
0.000134562
0
0.000138711
0.000146623
-0.000151505
0.00014455
-0.000153657
-0.0001372
0
0
-2.39322e-06
0
-0.000151949
-0.000161899
0
0
-0.00016808
0.000185945
0
0
0
-0.000191475
-0.000202709
0
0.000221451
0
0
0
0
0.00022994
0.00023118
0.000434541
-0.000453287
-0.000436765
-0.00044328
0
-0.000918025
0
0
0
0
-0.000417558
0
0
0.000410555
0
0
-5.40663e-06
0.000801891
0.000405136
0.000438852
-0.000406982
-0.000772074
0.000373591
5.03785e-06
0
0
0
0.000343823
0.00032652
0.000319305
4.27383e-06
0
0
0
0
0.000266326
0
0
0.000264897
0.000264829
0.000290086
-0.000281745
-0.000265225
0.00162101
0.000975952
0
-0.00044124
0
-4.26821e-06
-7.61942e-05
-2.87605e-05
0
1.92724e-05
0
0
0
5.84387e-05
0
0
-9.96192e-05
0
0
9.54575e-05
0
8.62319e-05
0
0.000152561
-7.61315e-05
-9.34485e-07
-7.67892e-07
9.32815e-05
9.99458e-05
0.00021108
-1.52444e-07
0
0
0.000187212
-8.83083e-05
-8.53364e-05
-8.22483e-05
0
0.000217865
-0.000139516
-0.000137464
-0.000139555
-0.000139991
0
0.000138854
-0.000271753
0.000134979
0.000132725
-0.000262364
0
0
0
0
0.000114245
0
0
-0.000114783
0
0.000222073
0
-0.000107418
0
0
0
0
0.000101932
0
9.34799e-05
2.81493e-06
0
9.20491e-05
-9.05615e-05
8.91507e-05
0
0
0.000150802
7.71717e-05
0
0
0.000222816
0
0.000225702
7.25512e-05
-6.84271e-05
-0.000135408
0
0
0
-4.4605e-06
0.000131092
0
-4.21601e-06
0
0.000136403
0.000119384
-0.000120894
0
0.000124983
0
-0.000113163
0
-0.000127038
-0.000127511
0.000114473
0
-0.000270847
0
0
0
0
0
-0.000149778
0.00015475
0.000133686
0
0
-2.71451e-06
0
-0.000146942
0.000317926
0
-0.0003154
0.000493775
0
0.000370261
0
0
0.000188337
0.00019764
-0.000365195
-0.000398136
0
0
0
0
0
0
-0.000826337
0
4.71761e-06
0.000443292
-0.0004279
0.00044165
0
0
0
0
-0.000408534
0
-0.000395345
-0.00078515
0.000400378
0
-0.000412386
-0.000384913
-0.00038872
-0.000418806
0.000402835
0.000378937
-0.000381562
0.00074063
0
0
0.000335662
-0.00032809
0
-0.000608393
0.000327162
0
0
0
-0.000483067
-0.000498864
0
0
0
-0.000530331
-0.000551889
0.000505844
0
0
-0.000985966
0
-0.000515546
0
-0.000216599
0.0001039
-2.157e-05
0
-4.87231e-05
0
0
0
-6.4154e-05
8.35365e-05
0
0.000193472
-0.000102065
0
-8.85184e-05
0
-6.46949e-05
-6.49665e-05
-0.000132426
0.000148301
8.31889e-05
0.000269353
-9.49794e-05
0.000202982
-0.00031483
0.000104736
0
0.000193454
-0.000175107
-0.000164918
0
0
0.000146376
-0.000141044
0.000273861
0.000270703
0
0
0
-2.48589e-06
2.58316e-06
-0.000130625
-0.000132153
0.000255456
0
0
0
0.000114662
-3.07956e-06
0
0
0
0
-3.19342e-06
0
0.000208804
0
0
0
0
0
-9.47059e-05
-0.000186444
9.17732e-05
0
0.000175287
-0.000165827
0
0.000158039
-0.0001599
-0.000223374
0
0
0
-0.00014891
-0.000140123
-0.000276203
0
0.00012493
5.36287e-06
0.000125946
0.000121467
0
-0.000299861
-0.000278891
0
-0.000126716
0
0
-0.000124115
4.47237e-06
0.000120675
0
0
0.000227029
0
4.24327e-06
0
-0.000121435
0
0.000132253
0
0
0.00012795
0
0
0
-0.000153329
-0.000130482
0
-0.000290443
-0.000142091
0.000276716
0.000147105
0.000149066
-0.000322292
6.17177e-06
-0.000343015
-0.000353782
-0.000689997
0.00036396
0
0.000379281
0.000376238
0.000363272
5.33676e-06
0
0
0
0
0
0
0.000795054
0
0.000837177
0
0.00083574
0
-0.000425048
0
0.000421885
0
0.000834867
0
0.00039267
6.48642e-06
-0.000776747
0
0
0
0
0.000405185
0
0
0
-0.00110829
-0.00067059
0
-0.000314668
0.000316249
0.000603468
0.000592046
0.000606764
0.000515932
-0.000529002
0
1.09097e-05
0.000958335
0
0
0
9.76193e-06
9.20186e-06
-0.00050676
0
-0.00150247
0.00110285
0
0.000583335
0
0.000216676
0
9.63878e-06
0
7.95835e-05
0
0
0
-8.95586e-05
-8.83159e-05
0
-8.59158e-05
8.28905e-05
0
0
0
0
6.48799e-05
7.17459e-05
-7.80194e-05
0
-0.0001732
0.000195437
-0.000409709
0.000205691
0
0
-0.000180374
0
0.000160431
-0.000154836
0
-0.000279884
0
-0.000135373
-0.000136592
0.00013545
0
0
-0.000137068
2.90407e-06
0.000127586
-0.000122334
-3.1673e-06
0
0
-0.000112827
-0.000114085
-0.000112002
-0.000106562
0
0
0
-0.000105943
0
-3.60287e-06
-9.96024e-05
9.77852e-05
0
-0.000186445
0.000183027
0.00027691
0.000264051
0
0
-0.000173131
0.000168596
0
-0.000162747
0.000156855
0.000152519
0
0
0.000152469
0
0.000130225
0.000123143
0.000124759
-0.000133957
0.000128994
-0.000123626
-0.000228382
0
0.000137791
0.000128548
0
0
0
-0.000106213
0
0.00012725
-0.000118138
0
0
-0.00011146
0
0.000231035
0
0
0
0.000129588
0
0
-0.00036421
0
0
0
0.000417697
0.00013426
0
0.000304657
0.000286169
-0.000573863
0.000289455
-0.000300533
6.88877e-06
0.000360386
0
0.000367536
0.00035054
-0.000389509
0
-6.21474e-06
-0.000732897
0
0.000380679
0
0
0
0
0
0
-0.000381476
0
-0.000414493
0.000418227
-0.000404933
0
0.000417007
0
-6.67423e-06
0
-6.89026e-06
0
0
0.00037876
0.000382575
0
-0.000718689
0
0
0
0
-0.000678441
0
0.000672016
1.32278e-05
0.000664274
0
0
-0.000593575
-0.000561078
-0.000608362
-1.17995e-05
0.00054438
0
0.000484992
-0.000946192
0
0
-0.000524274
0.00107078
9.90122e-06
0
0
0.00151475
-0.00122202
0.000952107
0
0
-7.91693e-06
0
0
0
6.35353e-06
0
0
0
8.72983e-05
0.000178347
0
0
0
0.000191959
0.000194321
-0.000187145
-0.000176771
0
0
0
0
0
1.6485e-06
0.000198149
0
0
0
0
0
0
0.000142582
0
0.000146062
0
0
0
-0.000144797
0
0
0
3.20576e-06
0
0.000245264
-0.000121685
0
0
0.00011254
-0.000106349
0
0.000106733
0.000101671
0
0
0
0
-0.000100282
9.90526e-05
-9.70419e-05
0.000182765
0.000355666
-0.00017844
-0.000181867
-0.000176785
0
0
0
0
0.00015857
0
0
0
-0.000140148
0
-7.063e-06
0
-0.000130448
0
-0.000132002
0
0
0
0.000125982
0
0
0.000106906
0.000109111
0.00012127
0
5.60378e-06
0
-0.000112866
0
0
0.000103456
0
0
-9.5777e-05
-0.000101435
0
0
-0.00012488
0.000242511
0
0.000254527
0
0
0.0002485
-0.000260894
-0.000256771
0
0
-0.000262804
0.00027457
-0.000280944
0.000267098
0.000297335
0.000332896
0.000320481
0
-0.000349434
-0.000376155
0
-0.000371848
6.67301e-06
-0.00037053
0
0
0
0
0
0
0.000375586
0
0.000379212
0
-0.000418387
0
0
0.000389574
0
-0.000819798
0
-0.00038711
0
0
0
0
0
0.00137322
-0.000694532
-0.00071494
0
0.000649647
0.000682017
0
0
1.43297e-05
-0.00061666
0
-0.000536105
0
0.000553145
0
-0.00103525
0
-0.000484348
0
0.000466346
0
0
0.000505054
-0.000528181
1.07214e-05
0.000485604
0
0
0
-0.00109056
0
0
-0.000218638
0
1.79148e-05
0
8.07453e-05
0
0
0
0
-0.000169468
0.000180464
0
0
-0.000186372
-0.000190502
-5.62925e-06
0.000184176
0
0
0
0
0
-0.000359315
0
0
0
0
0.000142546
0.000138444
0
0
0.000130482
0
0
-0.0001295
0
0
0
0
0
3.45874e-06
-0.00011504
-0.000114982
0
-0.000105386
0
0
0.000104214
-0.000196171
0
-0.000100951
0
0
0
0
0
0
0.000174627
-0.000181978
-0.000174157
-0.000155227
0.000151326
0
0
0
0
-0.000148405
-0.000156823
0.000142838
-0.00014806
0
0.000290819
0
-0.000136103
-0.000125259
0.000266188
0
0
0.000101282
-0.000103521
0.000100931
-0.00011451
0
0
-6.48027e-06
-0.000102235
-6.27403e-06
0
6.0831e-06
9.57882e-05
5.9089e-06
0
0
-0.000105818
0
0
-0.000184431
-9.2533e-05
0
0
0
-0.00024044
0
0
0
0
-0.000492445
0.000241877
8.48418e-06
-0.000261519
0
0.000245695
0
-0.000262793
-0.000273719
0
-0.000324551
-0.000644215
0
0.000342141
0.000709405
0
0
0.000734973
7.15962e-06
0
0
0
0.000396141
0
0
-0.000758522
-0.000380314
-0.000398975
0
0
0.000383907
0
0.000353084
0
0.000375271
0
0.000724031
0.000761188
-0.000677654
0
0
0
-0.000683584
1.60584e-05
0.000711104
0
-0.000612651
0
0
0
0.00058253
0
0.000560775
0.000501184
0
-0.000489183
0.000547051
1.41231e-05
0.000459321
1.39745e-05
0
-0.000429841
0
0
0
0.000466599
1.16223e-05
-0.000935554
0
0.00184049
0.00144983
0
0
0
0
0
-4.47184e-05
0
1.60769e-05
-0.000260451
0
0
0
0
-0.000420677
0
0
0
0
0.000358906
0
0
0
0.00017318
0
0
0.000153644
0
0.000146881
0
0
-0.000127018
-0.00024551
0
0
-0.00011612
0
0.000114896
0.000115721
-0.00011232
0
0
0
0
0.000108643
0.000106247
0
0
9.9789e-05
0
0
0
0.000190979
0
0
0.000176502
0
0.000172966
0
0
0
-0.000172942
-0.000164979
0.000160373
9.2967e-06
-0.000155401
0
0
0
0
0.000135617
0.000125939
-0.000136192
0.000141402
0.000132606
-0.000140927
0
0
8.10138e-06
-8.01851e-06
0.00011576
-0.000118349
-7.64179e-06
0.000112331
-0.000209922
0.000112292
0
0.000100799
-9.86903e-05
0
-0.000103518
0
-9.51705e-05
9.40749e-05
0.000102148
-0.000186729
0
0
0.00020196
0
0.000207095
0.000196013
0
0.000216867
0
0
-0.000215955
0
0
0
9.50002e-06
-0.000257341
0.000259993
0.000266482
0
-0.000518202
0.000248488
0.000261813
-0.000271427
0
0.000311978
0.000325324
0.000306379
0
-0.000337744
0
0
-0.000722949
0.000347626
0
0
0
-0.000388388
0
0
0.000381947
0.000384936
0.000778925
-0.000777749
0.000734646
-0.000383011
0
-0.000713418
0
0
0
-0.000720237
-0.00148756
0.000711345
0.000710012
-0.000692629
-0.000681398
0.000646459
1.72364e-05
0
0
-0.000595308
0
0.000539578
0
0
-0.000545843
-0.00112531
0
0
0.000920412
-0.00052091
0.000410887
-0.000453803
0.00042439
0.000420891
0.000825363
0
0
0
-0.000411688
0.000426357
0.000448655
0
-0.00175748
-0.00130514
0
0
0
0
0
0
0
-0.000150424
0.00017844
0
0
-0.000239443
0
0.000419165
-0.00019405
0
0
0
-0.000145701
-0.00014568
0
0
-0.000123701
0.000116656
0
0
-0.000107558
-0.000105838
0
0
0
9.39506e-05
0
0
-9.25791e-05
-9.26058e-05
-9.79298e-05
0
9.30896e-05
0
0
0
-0.000169285
0
-0.000168251
0
0
-0.000165328
0
-0.000164979
0.000161166
0
0.000154988
0.000154024
-0.00016169
0
-0.0003096
0
0
0.00014785
0
9.84895e-06
-0.000152358
9.81544e-06
0
0
0
0
0.00012611
0
-0.000126764
0
0
-0.000121636
-0.000109953
0
0
0.000114604
-0.000218624
-8.34331e-06
0.000121335
-0.000111333
0.000102964
0.000109233
9.57192e-05
0
-0.000277666
-0.000191492
0
0
0
0.000402773
-0.000190991
0.000172254
0.000176608
0
0
-0.000180005
0
0
-0.000187056
0
-0.000212952
-0.000200535
0
0.000203944
0
0
0
0.000499355
0.000245689
0
0
0
9.63991e-06
-0.000520422
0.000256558
0.000282846
0.000275456
-0.00060325
-0.00029973
-0.000306766
0
0
0
0
0.000673614
0.000341475
0.000361618
0
0
0
0
0
0
0
-0.000743628
0.000735353
-0.000714672
0
0
0
-0.000685931
0
0
0
0.000709113
0
-0.00139805
0.000683046
0.00067148
-0.00062725
1.8293e-05
0
0
0.00122904
0
-0.00105479
-0.000525656
0
0.000504194
0.000542391
0
0
-0.000920374
0.000459122
0.000403556
0
0
-0.00040855
-0.000394497
0.000381227
0
0
0
0
0
0
0
0.00192177
0
0
0.000261612
-0.000111194
0
-1.62175e-05
0
0
0
0
0
0.000137966
0
-9.83149e-05
-9.69933e-06
0
-8.59519e-05
0
-7.15093e-05
6.25079e-05
0
0
0
-5.44942e-05
5.41684e-05
0
4.60076e-05
0
0
4.29286e-05
0
0
0
-4.40595e-05
4.582e-05
4.59582e-05
0
0
0
0
-8.80617e-05
-8.55214e-05
0.000175892
0
9.91545e-05
0
0
0.00010069
0
0.000100559
-0.000189233
0
-0.000184406
-0.00010361
0
0
9.62899e-05
0
0
-9.40282e-05
8.33642e-05
9.91278e-05
9.14907e-05
0.000194055
9.21072e-05
0
0
0
-9.11808e-05
7.18453e-05
0
0
0
0
9.11708e-06
0
0
0
0.000122134
-8.60822e-06
0
-0.000126406
-8.56108e-05
0
-0.000177803
0
0.000112028
0.00014463
-0.000162683
0
0
-0.000114101
0
-0.000120904
0
-7.43068e-05
7.4304e-05
0
0
0.000129661
1.32037e-05
0
0.000118813
0.000156683
-0.000141637
0
0.000168053
0
0.000163105
-0.000162006
-0.000206893
0
0
0
0.000175647
0.000454888
-0.000444848
0
-0.000201733
0.00050246
9.79346e-06
-0.000232756
0.000233118
-0.000234647
0
0
-0.000260733
-0.000284665
-0.000313431
0
0
0
0
0
0
-0.000598245
0.00060564
0.000611299
-0.000608048
0
0
0
0.000604065
0.00059723
0
-0.000577438
0
0
0.00121379
0
0
0.000534015
0.00110445
0
0
-1.88488e-05
0.000532509
1.8667e-05
1.85549e-05
0.000409534
0.000429936
-0.000445523
0
0
0.000433714
-0.00042691
-0.000782183
0.000372762
0
0
0.000662838
-0.0010501
0.000628704
0.000755912
0
-0.000744551
0
0
0
-0.00299067
-0.000955667
0
-0.0004812
2.24384e-05
-2.78239e-05
2.06306e-05
0.000168223
0
0
-0.000192109
0
-0.000174519
0
0
0.000203034
0
6.88984e-05
0
5.07009e-05
0
0
0
0
0
-6.33407e-05
0
0
3.76084e-05
0
-7.29567e-05
0
0
0
-3.37439e-05
0
0
-7.80482e-05
0
0
8.35812e-05
8.19996e-06
8.5155e-06
-8.05834e-05
-8.63837e-05
0
0
0
0
0
0
0.000196244
8.57597e-05
0.000203443
0
0
0
0
9.55674e-05
0
9.77504e-05
-0.00011236
0
-1.03653e-05
-0.000210668
-0.000243714
0
-0.000103579
0
0
-8.17329e-05
9.5964e-05
0
0
0
9.00435e-06
0
0
5.3564e-05
-7.90355e-05
-0.000308236
0
0.000376572
-0.000244347
0
0.000133169
0
0
0
1.49469e-05
0
0
0.000139644
0
0
0
6.83819e-05
-0.000180393
8.99995e-05
0.000183629
-0.000264534
0.000237254
0
-1.24162e-05
-0.000225766
0.000217691
-0.000286119
-0.00027681
-0.000271197
-1.05436e-05
0
0
-0.000212667
0
0.000219231
-0.000194065
-0.000340049
9.89057e-06
0
0
-0.000375208
9.53103e-06
0.000313163
-0.000320194
0.000278816
0
0
0
0
0
0
0
0
0
0
0.000635806
0.000659887
-0.00150291
-0.00139466
0.000703819
0.000653407
0
0
0
-0.00138551
0
0.000607952
0
0
-0.00065182
-0.000635079
0
-0.00118302
-0.00118421
0
0
-0.000561075
-0.000559421
0.000508009
1.89191e-05
-1.87262e-05
-1.84674e-05
1.83588e-05
0
0
0
0
0.000404584
-0.000382043
0
0
-0.000647822
0.000697719
-3.26273e-05
-0.000702679
0
0.000763034
0.000820566
0
0
0.00121151
0.000796701
0
0.000591589
0.000312928
-2.13947e-05
-0.000106692
-0.000298098
0.000151472
0.000197584
-1.45596e-05
0
0.000147924
-0.000122022
-0.000103677
-7.97582e-05
0
0
0
0
0
0
0
0
-3.10245e-05
2.81845e-05
0
-2.6551e-05
-2.62495e-05
0
5.50594e-05
0
0
0
6.23516e-05
0
0
8.98434e-05
-9.06472e-05
0
-9.17532e-05
0.000156668
8.66872e-05
-7.91141e-05
9.47688e-06
-6.96481e-05
7.32025e-05
-6.36252e-05
0
0
0
-0.000116735
-1.05115e-05
-0.000133781
0
0
-0.000117139
-7.24212e-05
-1.04526e-05
0
-0.000202996
-0.000104465
0
-0.000164397
0.000279148
0.000131734
0.00010672
0.00013227
0
-0.000140987
0
-0.000139922
0
0.000188822
0.000129237
8.81036e-06
0
0.000147141
-0.000131934
0
1.57079e-05
-0.000187039
-0.000209021
0.000325378
0
0.000200418
0
0
0.000242869
0.000415472
0
-0.00045894
-0.000498275
0
0
0
0.000226986
0.000202693
-0.000156014
-0.000416809
-0.000257153
-0.000232248
0.000321684
-0.000357128
0.000403846
0
0.000445372
0
0.000177877
-0.000103144
0
0
0.000201959
0
-0.000696593
9.85844e-06
0
0.000493931
0
0
-0.000425815
0.000408651
0.000365686
-0.000770007
-0.000682296
0
0
0
0.000799327
0
0
0
0
0
0
-0.00162886
0
0.00176885
0.000762643
0
-0.00084075
-0.000731384
0
-0.000706486
0.000769594
0
0
0
0
-0.000678782
0.00136052
0
0.00064379
0.000631608
0
0
0
0
-0.00051347
0.00100269
-0.000489173
-0.000942753
0.000437689
0.000416891
0
0
0
0
0
0
0
0
0
-0.00101128
0
0
0.000658919
-0.000792574
0
0
0.000847769
0
0
-0.000284554
-0.000156583
-5.1146e-05
8.77003e-05
0.00016071
-0.000145852
-0.000264081
9.52869e-05
0
0
0.000229771
9.52887e-05
0
0
0
0
0
0
0
0
2.07422e-05
1.91914e-05
-1.98214e-05
0
1.70081e-05
0
-1.47915e-05
-2.69286e-05
0
-2.9551e-05
0
0
0
0
0
7.11859e-05
-5.85286e-05
0
-6.09092e-05
0
0.000174331
8.33518e-05
7.51679e-05
-0.000141947
0.000106144
0
0
0.000116147
0
-0.000223576
-0.000138015
0
0
0.000315576
0.000110079
-0.000123759
0
0.000159316
0.00014768
0
0
-0.000199389
0.000117929
-8.03671e-05
0
0
9.04101e-06
0
-0.000186617
0.000197405
-0.000218182
-8.20628e-06
0.000330937
0
-0.000198889
0
0
0.000288387
0.000204256
0
0.000423181
-7.42689e-05
-0.000193267
0
0
-0.000541064
0
0
0.000488426
0.000154968
0
0.000315873
0.000509264
-0.000722275
0
0.000277412
0.000370235
1.07998e-05
1.04799e-05
-0.000349099
0
0
0
0.000403771
0.00023625
0
-9.34877e-05
0.000322554
0
0
0
0.000224684
0.00032871
0
0
0.000526877
0
0.000384517
0
-0.000396817
0.000848777
0.000828355
0
0.000618679
0
-1.56152e-05
0
0
0.00107085
-0.00100074
0.000952698
0
0.00185988
0
-0.000818931
-0.000693193
0.000896982
0.000875052
0.000803784
0
0.00075793
0.000723591
0.000638825
0
0
0
0.000715805
-0.000668918
-0.000614007
-0.000641712
0.000620166
0
0
0
0
0.000525202
-1.83536e-05
0.000461711
0.000458332
0
-1.76394e-05
0.000376578
-0.000386674
-0.000335334
0
0
0
0
0.00056847
0
0.000555318
0
0
-0.000584508
0
0
0
-0.000733019
0
0
7.83934e-05
0
-8.20832e-05
-0.000145661
-0.00023855
0
0.000204071
0.000186505
0
-0.000178457
-0.000149143
0
0
0
0
0
0
0
2.28969e-05
0
-1.84014e-05
0
1.6186e-05
-1.05793e-05
1.33965e-05
-6.45678e-06
9.06204e-06
0
0
1.91213e-05
1.49253e-05
1.80977e-05
0
0
0
-1.31378e-05
3.95136e-05
-6.28376e-05
0
0
-9.42864e-06
0
0
0.000112345
9.968e-05
0.000122101
0
-8.8913e-05
0
0.000122083
0.000133485
0
0
-0.000159272
0
0
0
0
-0.000102453
0.000147063
-0.000213951
0
-8.93888e-06
0
-0.000137322
0.000260104
0.000169288
0
0.000145768
-0.000238577
0
-7.66702e-06
-7.62067e-06
0
0
-0.000196673
0
0.000196619
0
0
-0.00052542
1.24273e-05
-0.000240634
0
0
0.000317019
0
0
0
0
0
-0.000726978
-0.000574716
0.000418125
0
-0.000270583
-0.000532222
0.000823652
0.000404879
0
-0.000320531
0
0
-0.00041387
-0.000416665
0
0.00048638
-0.000359987
0
0.000324426
0
0
0
0
-0.00051267
-7.54384e-06
-0.000444843
0
0
-0.000368186
0
-0.000446136
0
-0.000743986
0
-1.40829e-05
0
0
-0.00108214
1.4364e-05
-0.00115777
0
-0.00208103
0
0.000810943
0.000727735
-0.000819961
-1.74169e-05
0
0
-0.000812248
-0.000742924
-0.000735243
-0.000608348
0
0.000700971
0.000671581
-0.000563932
0.000632936
0.000650578
-0.000621075
0
0
0
-0.000527098
0.000492126
-0.000463808
-0.000446823
0
0
-0.000385852
-1.677e-05
0.000740409
0.000310802
0
0
-0.000274136
0
-0.000571652
-0.000258525
0
0.000428828
0
-0.000532108
-0.000626118
-0.000742479
0
0
-0.000608095
0
-0.00010632
-7.23408e-05
0
0
-1.92465e-05
0
0
-0.000210739
0
0.000199286
0.000179716
-0.000149518
0
0
-7.01416e-05
0
0
0