/*--------------------------------*- C++ -*----------------------------------*\
  =========                 |
  \\      /  F ield         | OpenFOAM: The Open Source CFD Toolbox
   \\    /   O peration     | Website:  https://openfoam.org
    \\  /    A nd           | Version:  8
     \\/     M anipulation  |
\*---------------------------------------------------------------------------*/
FoamFile
{
    version     2.0;
    format      ascii;
    class       volScalarField;
    location    "200";
    object      wpod_1;
}
// * * * * * * * * * * * * * * * * * * * * * * * * * * * * * * * * * * * * * //

dimensions      [0 1 -1 0 0 0 0];

internalField   nonuniform List<scalar> 
12225
(
-3.48464e-16
7.84447e-17
-8.42137e-18
-6.78318e-18
3.85907e-17
2.99984e-18
7.85191e-19
1.71067e-17
8.34977e-18
-4.04176e-19
-5.9923e-18
5.61061e-18
8.11376e-18
-2.49053e-18
6.62584e-18
6.48611e-18
-2.62173e-18
-3.98635e-18
-3.85242e-18
-6.30668e-19
2.2381e-18
1.88031e-18
2.39353e-18
-1.58768e-18
7.31568e-19
2.33446e-20
1.6576e-18
-1.00708e-18
1.47109e-19
-2.03231e-19
2.55517e-19
-7.37811e-19
-1.55787e-18
-1.94038e-18
-1.40139e-18
6.27529e-19
-1.56681e-19
3.6654e-19
1.31366e-18
9.57855e-19
-3.06142e-19
-1.51079e-18
1.08067e-18
-1.60614e-18
-2.13471e-19
8.002e-19
4.43775e-19
-1.11768e-18
-2.01545e-19
7.74635e-19
-1.34092e-18
8.54575e-19
8.13646e-19
2.42927e-19
-4.16253e-19
3.37827e-20
-5.41974e-19
-5.44658e-20
-2.11014e-19
-2.78422e-19
-6.88081e-20
6.71999e-19
9.32939e-20
-1.03434e-19
-5.39262e-19
2.49901e-19
-5.6888e-19
-2.90951e-19
4.9973e-19
-2.55764e-19
1.71357e-19
-2.75854e-19
6.2806e-19
3.11824e-19
1.35516e-19
-6.83305e-20
-1.66251e-19
-1.43725e-19
-6.88663e-20
5.62543e-20
-9.35728e-20
-7.37483e-20
4.43351e-20
-3.35564e-20
-1.28605e-19
-4.17471e-20
8.46904e-20
3.12423e-20
-1.11961e-20
-8.55271e-21
-2.15725e-20
1.80727e-20
1.31644e-20
7.19444e-21
1.74932e-21
-1.04051e-20
-7.03494e-22
-1.91106e-20
-8.18298e-21
2.57581e-21
2.46974e-21
1.8925e-21
1.0784e-21
0
0
0
0
0
0
0
0
0
0
0
0
0
0
0
0
0
0
0
0
0
0
0
0
0
0
0
0
0
0
0
0
0
0
0
0
0
0
0
0
0
0
0
0
0
0
0
0
0
0
0
0
0
0
0
0
0
0
0
0
0
0
0
0
0
0
0
0
0
0
0
0
0
0
0
0
0
0
0
0
0
0
0
0
0
0
0
0
0
0
0
0
0
0
0
0
0
0
0
0
0
0
0
0
0
0
0
0
0
0
0
0
0
0
0
0
0
0
0
0
0
0
0
0
0
0
0
0
0
0
0
0
0
0
0
0
0
0
0
0
0
0
0
0
0
0
0
0
0
0
0
0
0
0
0
0
0
0
0
0
0
0
0
0
0
0
0
0
0
0
0
0
0
0
0
0
0
0
0
0
0
0
0
0
0
0
0
0
0
0
0
0
0
0
0
0
0
0
0
0
0
0
0
0
0
0
0
0
0
0
0
0
0
0
0
0
0
0
0
0
0
0
0
0
0
0
0
0
0
0
0
0
0
0
0
0
0
0
0
0
0
0
0
0
0
0
0
0
0
0
0
0
0
0
0
0
0
0
0
0
0
0
0
0
0
0
0
0
0
0
0
0
0
0
0
0
0
0
0
0
0
0
0
0
0
0
0
0
0
0
0
0
0
0
0
0
0
0
0
0
0
0
0
0
0
0
0
0
0
0
0
0
0
0
0
0
0
0
0
0
0
0
0
0
0
0
0
0
0
0
0
0
0
0
0
0
0
0
0
0
0
0
0
0
0
0
0
0
0
0
0
0
0
0
0
0
0
0
0
0
0
0
0
0
0
0
0
0
0
0
0
0
0
0
0
0
0
0
0
0
0
0
0
0
0
0
0
0
0
0
0
0
0
0
0
0
0
0
0
0
0
0
0
0
0
0
0
0
0
0
0
0
0
0
0
0
0
0
0
0
0
0
0
0
0
0
0
0
0
0
0
0
0
0
0
0
0
0.000875681
-0.000705007
0
0
0
0.000368642
0
0
0
0
-0.00027903
0
0
0
0
-0.000251589
0
0
0
0
0
0
0
-0.000208372
0.000196806
-0.000183783
-0.000172793
0
0
0.000148959
0.000143229
0
0
0.000129675
0
0
-0.000119315
0
-0.000112862
-0.000220008
0
0
0
0
0
-0.000190716
-0.000186932
-0.000182943
0
0.000175178
0
-0.000168527
-0.000165144
0
0
0
-0.000152934
0
0
0
0
0
0
0
0
0.000128979
0
0
-0.0001216
-0.000118933
0
0.000114206
-0.000111487
0
0.000107084
0
0
-9.90785e-05
0
9.38934e-05
0
-8.9038e-05
-8.66049e-05
-8.39042e-05
-0.000162128
0.000157529
0
0
0
0.000134679
0.000129724
-0.000123653
0
0.000111763
0.000105852
0.000100223
0
0
0
7.43196e-05
0
0
-5.30465e-05
0
0
-3.11534e-05
0
0
8.69797e-06
1.39242e-06
0
1.53541e-05
0
-3.05638e-05
0
-4.61028e-05
-5.42026e-05
0
0
0
0
0
0
0
-9.83592e-05
0.000103296
0
0
0
0
0.000259558
0
-0.000283009
0.000299216
0
0
0
-0.00035593
-0.000367104
0
-0.000385992
-0.000394638
0.000400958
0
0
0.000427908
0
0
0
0
-0.000472846
-0.000481139
0
-0.000487959
0
0
-0.000509523
0
-0.000509922
0
0
-0.000524695
0
-0.000524606
0
0
0
0.000509221
0
-0.0005047
0
0
0
0
0
0
0
0.00100201
0
0
-0.00203414
0.00134727
0
-0.000627535
0
-0.000257648
0.000484451
0.000460507
0
0.000425104
0.000204757
0
0
0
0
0.00017379
0
-0.000326991
0
0
0.000295755
0
-0.000277216
0.000133082
-0.000127719
0.000122939
0.000118623
0
0
-0.000106499
0.000103225
0
0
-9.48427e-05
0
0
8.85057e-05
0
-8.48856e-05
0.000166357
0
0
0.000314248
0.000308724
0.00030289
-0.000149295
0.000146983
0.00043315
-0.000284581
-0.000139847
0
0.000135435
-0.000133393
0
0
0
0.000126405
0
-0.000244225
0
-0.000236983
0
0.000229899
0
-0.000224006
0.000110414
0
0.00021444
0.000106072
0.000104414
0
0.000101989
9.98883e-05
0
-9.67993e-05
0.000190201
0
9.16447e-05
0
-0.00026509
0
0.000258399
8.42918e-05
-8.34075e-05
-0.00016273
0.00015969
0
0
0
-0.000435148
-0.000142181
0.000140722
0
0.000133657
-0.000130242
-0.000128052
0
0
0
-0.000112629
0
0.000211142
0.000299132
-0.000197666
0
-8.91522e-05
0
-0.000162867
7.76119e-05
7.74322e-05
0
0.000197661
-0.000130317
-6.41003e-05
0
-5.57885e-05
-0.000153776
0
-9.55721e-05
-7.84556e-05
-7.15961e-05
0
0
0
2.73667e-05
2.53625e-05
0
2.34121e-05
2.36197e-05
0
1.83301e-05
7.19569e-06
-6.63519e-07
1.24135e-05
0
0
0
4.87455e-05
-5.3197e-05
-0.000120082
5.73912e-05
-5.06958e-05
-5.36898e-05
0
0
6.80876e-05
0
0
-0.000195311
0
-0.000109022
0.000122881
0
-0.000112558
0
0
0.000144466
-0.000277106
0.000134589
0
0
-0.000159729
0
-0.000168096
0
0
0
-0.000176939
0
0.000189603
0
0
-0.000391937
0.000377169
0
0
0
-0.00133601
0
0.000869973
-7.9513e-09
-0.00139478
0
0.000814264
0
0
4.96951e-07
-0.000267938
-0.000258586
-0.000248586
0
0
0.000231915
0.000458353
-0.000450748
0
-0.000427157
0.000206363
0
-0.000400212
-0.000196124
0.000382781
0.000187472
0
-0.000354775
-0.000342868
0
-0.000322647
0
-0.00030549
-0.000148194
0
0
0
0
0
0
-0.0002633
0.000389326
0
0
0
1.61671e-07
-0.000240886
-0.000472496
0.000468034
0.000231251
-0.000226481
-1.24219e-07
-0.000219797
0
-0.000212787
-1.2107e-07
0
0
0.000206421
0
0
-0.000196271
-0.000389355
0.000191732
0
-0.000186803
0
-0.0001825
-0.000178891
0.000355634
0.000175634
0
-0.000342704
0
-0.000508834
-0.00033426
-0.000326599
0.000319775
-0.000474118
0
0
0.00030246
0.000442813
0
-0.000144069
0
0.000426692
-6.85501e-07
7.05997e-07
-0.000269395
0
0.000257313
-7.87626e-07
0
0
0
-0.000233255
0
0
0
0
0
-0.000209475
0
-0.000192977
-0.000184931
0.000184393
0
0.000170653
0
0.000161118
-0.000153427
-0.000463885
0
-0.000424256
-0.000138502
0
-0.000266212
-0.000255027
0.000366998
0
0.000110593
0.000100308
0.000308152
0
0
0
8.35474e-05
0
0
-6.59105e-05
-6.24924e-05
0
0
-0.000102995
0
7.4893e-05
8.02118e-05
0
0
-4.0735e-05
1.82418e-06
1.80454e-06
0
-4.71228e-05
0
0
0
-6.13194e-06
0
8.06789e-05
5.34844e-05
0
5.84542e-05
0
0
0.000226082
-0.00018879
0
-0.000235333
0.000116665
0
0
0
0.000438153
0
0.000164664
0
0
0
0
0
0
0.000384073
0
0.000213404
-0.000625764
0
0
0.00045808
0.000535676
-0.000509462
-0.000512103
0.00285897
0.00179798
0.000868596
0.000337717
0
-0.000476325
0.000216259
0
0.000193859
0
-0.000364047
0
-0.000174254
-0.000342606
0.000338737
0
0.000325039
0
0
0.000304959
0
8.15936e-07
0
0
-7.62059e-07
0.000273823
0.000268235
0.000261958
0
0.00050757
0
0.00024549
0
0
-0.00023772
0
0.00023002
-3.81684e-07
-0.000450621
0.000446131
0
0
0.000215148
0
0.000209659
-0.000207232
-0.000204998
0
0.000200564
0.000198276
-0.000391981
0.000193376
0.000191345
0
0
-0.000185861
0
0
0.000359051
0.000355446
0
0
0
0
0.000335392
-0.000331153
-0.000328036
-0.000648018
0
-3.80309e-07
0
0.000309521
-3.9459e-07
0.000301547
-0.000297252
-4.18007e-07
0
-0.000286299
-0.000281604
-0.00055482
0
0.000270126
0
-0.000526303
0.000259327
-0.000254358
0.000251948
0.000497148
-0.000242587
0.000239335
0
-0.000464397
0
-0.000446029
0.000439675
0.000434099
-0.000423194
-0.000416151
0
-0.000201743
0
0
-0.000373298
0
0
-0.000349441
0
0
0
0.000633441
0
0.000598395
0.000289657
0.000288677
-1.35533e-06
0.000268947
-0.000527456
-0.000254542
0
-0.000234584
-0.000461343
0
0
0
1.28591e-06
0
0
0
0
0.000327214
0
-0.000296077
0
-0.00025725
-0.000123159
0.00022812
-0.000212738
-0.000101064
9.25187e-05
-8.24937e-05
0
-7.71005e-05
0
0
0
-9.38789e-05
0
-1.77241e-06
0
0
-2.49924e-05
0
0
-1.91974e-05
1.44659e-06
0
7.04202e-05
7.76935e-05
0
0
-0.000109996
-1.2227e-06
0
-0.000158493
0
0
0
0.000209942
0
0
-0.000219971
0
0
0.000518853
0
0
-0.000304414
-0.000680204
0.000338042
0
-0.00170501
-0.00107112
-0.000773445
-0.000600161
0
0.000845587
9.80329e-07
0
0
0
0.000325189
0
0
0
0
0
-0.000292
-0.000285582
0
0
0.00027113
-0.000532806
0
-0.00025812
0.000252439
0
-0.000731103
0.000481537
-0.000475771
-0.000234196
0
-0.000690262
0
0
0.000222113
-0.000440243
-0.000651318
0.000643457
0.000211864
-0.000419195
0
0
7.3584e-07
0
0.000398409
0.000394058
0.000390301
0
-0.000382533
0
0.000749288
0
-0.000367224
0
0.000359536
0
0
0
0
0
0
0
0.000330988
0
0
0.000319817
0
0.00031277
0.000309639
0.000305827
0
0
0.000295299
-0.000584637
0
0.000853599
0
0.000277847
0
0.000270862
0.000533712
-0.000263136
0
0.000256605
-0.000506187
0
0
-0.000485557
0
0.000471471
0
0.000455125
0
0.000882594
-0.000434618
-0.000857292
0.000420836
0.000412767
0
-8.80312e-07
0
-0.000384977
0.000376846
0
0
0.000354744
-0.000348698
0
0
-0.000325359
0
-0.000311125
0
-0.000297865
0.000289259
-0.000568708
0.000277191
0.000268674
0
0.000253518
0.000246789
0
0
0.000459433
-0.000223665
0.000431286
0
0
0
-0.000744447
0
0.000346171
0
0.000315531
0
-0.000290924
0.000275869
0.000262256
-0.000249996
0
0
-1.33579e-06
0
0
0
0.000156886
0
0.000130445
0
0.00010867
9.87543e-05
-8.7234e-05
0
5.95945e-05
-4.67842e-05
0
-2.30335e-05
2.20891e-05
0
-3.07114e-05
2.42936e-05
-3.68692e-05
0
6.40645e-05
0
0
0
-0.000112319
0
0
0
0
0
-0.000170394
0
-0.000410153
0
0.000452705
0.000467975
0
0
0.000974916
0
0
0
1.27145e-06
1.18046e-06
0.000339107
0
0
0
0
0
0.000578904
0
-0.000561284
0.000275053
0.000270451
0
0
-0.000257401
0.000253295
0
0.000244577
-0.000481369
0
0.000462628
-0.000458377
0.00045378
0
0
0.000441658
0
0
-0.000429771
0.000850856
0.000419915
-0.00083131
0.000410983
0
0
0
-0.000394401
0
-0.000386486
-0.000382478
-0.000378722
-0.000375638
0.000371389
0
-0.000364273
0
-5.7197e-07
0
-0.000700487
0
0.000343907
0
0
0.000667174
0
0
-0.000323144
0
0
0.000627264
0
-0.000613124
-0.000303165
0
0.000595228
0
-0.000580375
0.00114721
0
-0.000560451
0
0
-0.000542184
0
-0.000527865
0.000520866
0
0
0.000500787
-0.000494895
-0.00048875
-0.00048405
0
-0.000468912
-0.000460094
0
0
-0.000442569
0
0.000427758
0
-0.000415004
0
-6.9738e-07
0
0.000386885
0
0
0
0
0.000354616
0
0
0.000670718
0
0
0
0.000612342
0
0.000583271
0
-0.000563608
0.000547874
0
-0.000520257
0
0
-0.000971035
0.00047778
-0.000456554
0
0
0
0.000805154
0
-0.000379973
0
0
0
0
-0.000320456
0
0.000297298
-0.000280047
-0.000267604
0.000254442
0
0
0
0
0
0
0
-0.000160127
0
0.000139097
0
-0.000337065
0
0.000178853
8.05307e-05
-6.96439e-05
0
-8.87899e-05
0
-4.27258e-05
0
0
0
0
0
-8.96528e-05
-0.000115282
0
0
0
0
0.000217424
0
0.000538013
-0.000284357
-0.000302882
-0.000326872
-0.000345516
0
-0.000883737
0
-0.00104016
-0.000866911
0.000379818
0.000345921
0.000325197
0.000618862
0
0
-0.000572191
0
-0.00110239
0
0.000536244
0
0
-0.000512401
0
-0.000497801
0
0
0
-2.04951e-06
0
0
0
0
0
0
0.000431083
0
-0.000421622
-1.40274e-06
-0.000412345
0
0.000404158
-0.000398642
0
0
0
0
0
0
0.000374857
-0.000371667
0.000367457
-0.000729569
0
0.000715527
-0.000708657
-0.000351528
0
0.000343563
0
-0.000337436
0
0
-0.000654688
0
0.000643994
0
0
0
-0.00123567
-0.000611723
0.000605292
0.000600075
0
-0.000587414
0
0.000572686
7.73921e-07
0
0
0.000549519
0
0.00053606
0
-0.000525337
-0.000516541
0
0
0
0.000490572
0.000484255
0.000480671
0
0
0.000459892
0.00045422
0
0
0
-0.000854346
0
0.000413982
0
-0.000402432
0
0.000779065
0.000763155
-0.000749924
0
0
0.000718369
0
0.000693854
1.12512e-06
-0.000668558
0
0
-0.000625305
0
0
-0.000589648
0.000577489
-0.00112696
0
0.000537135
0
0
0.00100892
-0.000496534
0
0
0
0
-0.000421205
0.000413703
0.000399173
0
0
0
0.000363811
0.000700293
0
-0.000973482
0.000305308
0.000294752
0
-0.000545707
0
0
0
0
-0.000429022
0
0
0
0
0
-7.82972e-07
0.000269879
-0.000251801
0.000240991
0
-0.000193679
0
0.000138735
0.000120216
0
0
5.9178e-05
3.69193e-05
2.09594e-05
6.20779e-07
3.2578e-05
0
0
0
-0.000109518
-0.000130246
0
-0.000353131
1.80805e-06
2.42415e-06
0.00022156
0.000497511
-0.00246359
0
0
0.0019151
0.000803995
3.58249e-06
-0.000650541
3.14473e-06
-0.00058863
0
0
0.000545495
0
0.000526602
0
0
0
0
0.000495694
0
0.000479153
0
0
0.000459441
0.00044944
0.000444153
0.000440367
0
0.000433721
0.000428244
0.000424221
-0.000418569
0
0.00040954
-1.49983e-06
-0.000404224
-0.000400777
0
0.00039139
0
0
-0.000763324
-0.000756909
0
0
-0.00110512
0.00109648
0
-1.62158e-06
0
-0.000703103
0.00069683
0.000689961
0
0
0
-0.000667162
0
0.00065397
0
0
-0.000635076
0
0
0
0.00122134
0.000604011
0
8.73028e-07
0
0.000581467
-0.000575038
0.000568929
-0.000562584
0
0.000550246
7.468e-07
0
0
0.000529847
0.000523154
0.00051802
0.000510245
-0.000502902
0
0
0
0
-0.00094849
0
0
-0.00136316
0
0.000878134
0
0.000854175
0
0.000833213
0
0.000803409
0
-0.000780671
-0.00153861
0.000755225
0
-0.000736114
-0.000724277
0
-0.00070182
-0.000686494
0.000675001
-0.000660694
0.000651965
0.000634256
0
0
-8.42453e-07
0
0.00057351
0.000565469
0
0
0.000522137
-0.00051478
0
0
0
0.000467548
0.000457151
0
-0.000434255
0
0
0
0
-0.000381499
-0.000370482
-0.000709315
0.000686389
0.000658478
0.000634751
0
0.00117679
0
0
0
0
0.000467822
0
0
-0.0004071
0
0
-4.61655e-07
-0.000646672
-0.000307063
-0.000293745
0.000274854
0.00049574
-0.000226167
3.32083e-07
0
0
0
-0.000117501
-9.47335e-05
-7.68891e-05
3.4479e-07
0
0
0
0
4.89818e-05
0
0
0.000104625
0.000125832
0.000133116
-0.00015586
-0.000177394
0.00224171
0.00143501
0
-0.000856236
0
4.06416e-06
-0.000620575
-0.000584865
0
-0.0005486
0
0
0
-0.000503489
0
0
0.000489695
0
0
-0.000470983
0
-0.000458769
0
-0.000883955
0.000436705
2.22538e-06
2.15253e-06
-0.000424072
-0.000419803
-0.000834949
1.86025e-06
0
0
-0.000806
0.000397926
0.000395037
0.000392214
0
-0.0011529
0.000764886
0.000758776
0.000750355
0.000744196
0
-0.00073287
0.00145102
-0.00071914
-0.000714793
0.00141559
0
0
0
0
-0.000677112
0
0
0.000658544
0
-0.00129464
0
0.000636254
0
0
0
0
-0.00060597
0
-0.000594482
8.8844e-07
0
-0.000577332
0.000571532
-0.000565494
0
0
-0.00109252
-0.000540434
0
0
-0.00157727
0
-0.00154612
-0.000507815
0.00050129
0.000994971
0
0
0
-1.14405e-06
-0.000934035
0
-1.07761e-06
0
-0.000881785
-0.000868259
0.000855952
0
-0.000833067
0
0.000807453
0
0.000785845
0.00077293
-0.000761606
0
0.00148247
0
0
0
0
0
0.000670363
-0.000658857
-0.000640159
0
0
-6.83361e-07
0
0.000583104
-0.00114527
0
0.00109195
-0.00158903
0
-0.00103219
0
0
-0.00047819
-0.000468862
0.000901711
0.000888629
0
0
0
0
0
0
0.00146073
0
7.35693e-07
-0.000667319
0.000638962
-0.00061635
0
0
0
0
0.000500788
0
0.000458203
0.000878037
-0.000417321
0
0.000383515
0.000359284
0.00034849
0.000334208
-0.000312015
-0.000285277
0.000267789
-0.000492194
0
0
-0.000180715
0.000157486
0
0.000233085
-0.000101744
0
0
0
2.75691e-05
-4.80316e-06
0
0
0
-0.000147167
-0.00016844
0.000216293
0
0
-0.0012897
0
-0.000794381
0
-0.000616791
0.000580549
-0.000562097
0
0.000528493
0
0
0
0.000485778
-0.00048472
0
-0.000946171
0.000469568
0
0.000453954
0
0.000436765
0.000432434
0.000851228
-0.000845053
-0.000418505
-0.00124918
0.000412173
-0.000824826
0.00122625
-0.000404323
0
-0.000801621
0.000788462
0.000785403
0
0
-0.000766277
0.000756399
-0.00150708
-0.00149537
0
0
0
-2.05504e-06
1.96714e-06
0.000712487
0.000704693
-0.00139948
0
0
0
-0.000677146
-1.4223e-06
0
0
0
0
-1.19136e-06
0
-0.0012615
0
0
0
0
0
0.000598323
0.00118314
-0.000586092
0
-0.00115391
0.00114086
0
-0.0011173
0.0011087
0.0016376
0
0
0
0.00104783
0.00103634
0.00204782
0
-0.000999904
1.15899e-06
-0.000979918
-0.000966713
0
0.00189899
0.00187309
0
0.000906046
0
0
0.000871642
8.62416e-07
-0.000853113
0
0
-0.001625
0
7.27528e-07
0
0.000764678
0
-0.000744374
0
0
-0.0007098
0
0
0
0.00066428
0.000645391
0
0.00124931
0.000611799
-0.00119618
-0.000589393
-0.000579827
0.00113519
9.24924e-07
0.00107914
0.00106476
0.00207396
-0.00101541
0
-0.000976347
-0.000948274
-0.000915463
7.85427e-07
0
0
0
0
0
0
-0.0014875
0
-0.00141775
0
-0.00131184
0
0.000616013
0
-0.000574133
0
-0.00105745
0
-0.000484751
6.68337e-08
0.000882894
0
0
0
0
-0.000357308
0
0
0
0.000828607
0.00049868
0
0.000208167
-0.000183762
-0.000329385
-0.000290436
-0.000261492
-0.000204027
0.000184486
0
1.55265e-07
-0.000122908
0
0
0
2.24557e-06
3.10315e-06
-0.000146241
0
-0.00189503
0.00117502
0
0.000745031
0
0.00059531
0
0.00054022
0
-0.000517244
0
0
0
0.000477672
0.0004678
0
0.000454094
-0.000447389
0
0
0
0
-0.000419196
-0.000415075
0.000411115
0
0.000808001
-0.000813737
0.00162082
-0.000803268
0
0
0.00078554
0
-0.000772189
0.000769725
0
0.00150947
0
0.000743406
0.000738117
-0.000735501
0
0
0.000714945
1.94512e-06
-0.000702947
0.000699326
-1.70976e-06
0
0
0.000677344
0.000670558
0.000665111
0.000660864
0
0
0
0.000638455
0
-1.08341e-06
0.000624358
-0.00061868
0
0.00121497
-0.00120356
-0.00179017
-0.00177304
0
0
0.00115024
-0.00113834
0
0.00111571
-0.0011045
-0.00109131
0
0
-0.00106402
0
-0.00103399
-0.00102119
-0.00101341
0.00100116
-0.000988277
0.000975073
0.00192582
0
-0.000947299
-0.000937476
0
0
0
0.000886362
0
-0.000865639
0.000856248
0
0
0.000816116
0
-0.00158384
0
0
0
-0.000749899
0
0
0.00213973
0
0
0
-0.00200067
-0.000651906
0
-0.00126714
-0.0012417
0.00242554
-0.00119172
0.00116731
6.99278e-07
-0.00113279
0
-0.00108173
-0.00105194
0.00103389
0
-6.16894e-07
0.00192249
0
-0.000919652
0
0
0
0
0
0
0.000751237
0
0.000724802
-0.000703465
0.000674786
0
-0.000634221
0
-4.3978e-08
0
1.67201e-08
0
0
-0.000487987
-0.000465197
0
0.000857154
0
0
0
0
0.000663698
0
-0.000580764
-5.28479e-07
-0.000513479
0
0
0.000374735
0.000330618
0.000305015
3.85473e-07
-0.000226006
0
-0.000150297
0.000227788
0
0
2.34418e-05
5.19917e-05
2.60139e-06
0
0
0.00174956
-0.00107273
0.000812588
0
0
5.25271e-06
0
0
0
-4.33004e-06
0
0
0
-0.000460118
-0.000913719
0
0
0
-0.000882271
-0.000875305
0.000863704
0.000849918
0
0
0
0
0
-4.4611e-06
-0.000796958
0
0
0
0
0
0
-0.000758164
0
-0.000749424
0
0
0
0.000728458
0
0
0
1.86963e-06
0
-0.00138977
0.000688232
0
0
-0.000672605
0.000668829
0
-0.000657064
-0.000653048
0
0
0
0
0.000627721
-0.000622439
0.000616798
-0.00122487
-0.00242344
0.00119927
0.00119117
0.00118047
0
0
0
0
-0.00113016
0
0
0
0.00108626
0
-1.06896e-06
0
0.00104251
0
0.0010175
0
0
0
-0.00097287
0
0
-0.000939578
-0.000926738
-0.000916255
0
6.01425e-07
0
0.000869822
0
0
-0.000832808
0
0
0.000792533
0.00078342
0
0
0.000753354
-0.00148522
0
-0.00143619
0
0
-0.00136028
0.00134196
0.00131884
0
0
0.0012499
-0.0012249
0.00119987
-0.00117575
-0.00115858
-0.0011427
-0.00110631
0
0.0010671
0.00104692
0
0.00100171
4.17995e-07
0.000955068
0
0
0
0
0
0
-0.000797305
0
-0.000746924
0
0.00071682
0
0
-0.000649848
0
0.00122424
0
0.000563564
0
0
0
0
0
-0.00176178
0.000830441
0.000807119
0
-0.000737903
-0.000702037
0
0
-8.06694e-07
0.000538874
0
0.000434073
0
-0.000354368
0
0.000559329
0
0.000219699
0
-0.000151191
0
0
-5.96889e-05
1.4546e-05
2.13124e-06
4.19453e-05
0
0
0
-0.000707113
0
0
-0.000532009
0
-0.000505098
0
-0.000483293
0
0
0
0
0.00088704
-0.000883163
0
0
0.000854732
0.000850754
6.18429e-06
-0.000834054
0
0
0
0
0
0.00158565
0
0
0
0
-0.000768583
-0.000763967
0
0
-0.000748516
0
0
0.00073224
0
0
0
0
0
1.73494e-06
0.000696874
0.000689568
0
0.000680561
0
0
-0.000665309
0.00132293
0
0.000650929
0
0
0
0
0
0
-0.00123491
0.00122358
0.00121235
0.00120053
-0.00118987
0
0
0
0
0.00114055
0.00112968
-0.00111788
0.00111097
0
-0.00217942
0
0.00106507
0.00105669
-0.00209254
0
0
-0.00100587
0.000998998
-0.00098906
0.000981334
0
0
-4.82593e-07
0.000930129
-4.35798e-07
0
3.97691e-07
-0.000879736
3.51431e-07
0
0
0.000836361
0
0
0.00159469
0.000787607
0
0
0
0.00149261
0
0
0
0
0.00273748
-0.0013483
4.13335e-07
0.00130669
0
-0.00125193
0
0.00120778
0.00118356
0
0.00114953
0.00222884
0
-0.00107469
-0.00210807
0
0
-0.0019737
2.40988e-07
0
0
0
-0.000878469
0
0
0.00161632
0.000783424
0.000763104
0
0
-0.000708736
0
-0.000657723
0
-0.000620241
0
-0.00114386
-0.00110426
0.00104887
0
0
0
0.000900731
-8.77785e-07
-0.000832452
0
0.000755136
0
0
0
-0.000589069
0
-0.00052033
-0.000456146
0
0.000375121
-0.000359714
-9.32645e-07
-0.000272052
-8.11223e-07
0
0.000177975
0
0
0
-5.43226e-05
1.67569e-06
-1.73575e-05
0
0.00152304
0.000899094
0
0
0
0
0
0.000493592
0
-9.74301e-06
0.000954625
0
0
0
0
0.00175558
0
0
0
0
-0.00165646
0
0
0
-0.000802296
0
0
-0.000779408
0
-0.000777631
0
0
0.000756652
0.00150649
0
0
0.000737048
0
-0.000731226
-0.000724114
0.000721825
0
0
0
0
-0.000696891
-0.000691382
0
0
-0.000676181
0
0
0
-0.00131754
0
0
-0.00129099
0
-0.00127254
0
0
0
0.00123339
0.00122622
-0.00121655
1.11045e-06
0.00119191
0
0
0
0
-0.00113852
-0.00112916
0.00111709
-0.00110915
-0.00109992
0.00109013
0
0
4.83391e-07
-4.45342e-07
-0.00103398
0.00102362
-3.64812e-07
-0.00100064
0.00197993
-0.000979179
0
-0.000954243
0.000940635
0
0.000917664
0
0.000892547
-0.000881555
-0.000869962
0.00171828
0
0
-0.00165231
0
-0.00160466
-0.0015796
0
-0.00154378
0
0
0.00147526
0
0
0
1.42854e-07
0.00135854
-0.00133378
-0.0013092
0
0.00251759
-0.00123532
-0.00121767
0.00119555
0
-0.00115224
-0.00112018
-0.00109846
0
0.00106108
0
0
0.0019838
-0.000962551
0
0
0
0.000883556
0
0
-0.000816557
-0.000793899
-0.00154852
0.00151829
-0.00146532
0.000717271
0
0.00132815
0
0
0
0.00114998
0.00221893
-0.00106607
-0.00103247
0.00099848
0.000958927
-0.000914465
-1.11461e-06
0
0
0.000766928
0
-0.000673463
0
0
0.000575194
0.00108046
0
0
-0.000805167
0.000387118
-0.000318571
0.000294789
-0.000268382
-0.000237238
-0.000398079
0
0
0
7.55464e-05
-5.32473e-05
-1.67399e-05
0
-0.00143366
-0.000810073
0
0
0
0
0
0
0
0.000897231
-0.000887472
0
0
0.00087373
0
-0.00170799
0.000846353
0
0
0
0.000807005
0.000806477
0
0
0.000787314
-0.00078446
0
0
0.000768133
0.000761601
0
0
0
-0.000743798
0
0
0.000734392
0.000730556
0.000725889
0
-0.00071599
0
0
0
0.00139557
0
0.00137726
0
0
0.0013501
0
0.00133451
-0.0013248
0
-0.00130534
-0.00129607
0.00128597
0
0.00253561
0
0
-0.00124009
0
7.97351e-07
0.00121096
6.74718e-07
0
0
0
0
-0.00115008
0
0.00112771
0
0
0.00109568
0.00108508
0
0
-0.00105223
0.00208523
-5.8215e-08
-0.00102282
0.00100915
-0.00099997
-0.000988851
-0.00097498
0
0.002853
0.00188064
0
0
0
-0.00357511
0.0017621
-0.00173813
-0.00171343
0
0
0.00164562
0
0
0.00158181
0
0.00154103
0.00151941
0
-0.00147019
0
0
0
-0.00276214
-0.00135652
0
0
0
-1.644e-07
0.00247691
-0.00121718
-0.00119579
-0.00117105
0.00230173
0.00112293
0.00110123
0
0
0
0
-0.00198627
-0.000969149
-0.000948822
0
0
0
0
0
0
0
0.00155117
-0.00151134
0.00146123
0
0
0
0.00128874
0
0
0
-0.0011189
0
0.00208209
-0.00100925
-0.000969255
0.000920949
-1.32428e-06
0
0
-0.00154115
0
0.00135467
0.000644743
0
-0.000564114
-0.000544392
0
0
0.000838493
-0.000392256
-0.000340864
0
0
0.000247439
0.000211339
-0.0001802
0
0
0
0
0
0
0
0.00156739
0
0
0.00104677
-0.000948129
0
-0.000836798
0
0
0
0
0
-0.00080832
0
0.000794373
7.0803e-06
0
0.000779041
0
0.000765166
-0.000755279
0
0
0
0.000740472
-0.000739587
0
-0.000726076
0
0
-0.000715741
0
0
0
0.000699727
-0.000693595
-0.000689368
0
0
0
0
0.00134201
0.00133305
-0.00264648
0
-0.00130547
0
0
-0.00128075
0
-0.00126377
0.00251116
0
0.00247404
0.00123004
0
0
-0.00120187
0
0
0.00117422
-0.00116536
-0.00115667
-0.00114726
-0.00227522
-0.00113037
0
0
0
0.00108988
-0.00107919
0
0
0
0
-2.56463e-07
0
0
0
-0.00197081
3.64607e-07
0
0.00191544
0.00095076
0
0.00276137
0
-0.00180174
-0.00178327
0.0017712
0
0
0.00169284
0
0.00165357
0
0.001599
-0.00157543
0
0
-0.00153097
-7.54975e-07
0
-0.00144795
-0.00143174
0.00141257
0
-0.0013767
0
-0.00132404
0.00130196
0.00129239
0
0
0
-0.00117545
-0.0023467
0.00229615
0
0.00110688
-0.00220174
-3.26221e-07
0.0010494
-0.00102843
0.00100462
0
0
0.000939816
0.000922718
0.000905696
0
0
0
0
0
0
0.00150278
-0.00147092
-0.00143249
0.00138863
0
0
0
-0.00123387
-0.0011969
0
0.00111062
0
0
-0.0020089
0
0
-0.000887221
-0.00169372
0
0
1.60943e-06
-0.000702399
-1.64334e-06
-1.67059e-06
-0.000575265
-0.000543217
0.000519097
0
0
-0.000413533
0.000383881
0.000688076
-0.000308065
0
0
-0.000420392
0.000551622
-0.000292193
-0.00026219
0
0.000153022
0
0
0
-0.00337554
-0.0012951
0
-0.00216069
-1.09182e-05
0.000961669
-9.95652e-06
-0.000934707
0
0
0.000893105
0
0.000880561
0
0
-0.00169845
0
-0.000835766
0
-0.000824342
0
0
0
0
0
0.00159637
0
0
-0.000789805
0
0.00155832
0
0
0
0.000764102
0
0
0.00149925
0
0
-0.00147465
1.48872e-06
1.3423e-06
0.00144423
0.00143735
0
0
0
0
0
0
-0.00274224
-0.00135876
-0.00269819
0
0
0
0
-0.00129493
0
-0.00127339
0.00126571
0
4.90262e-07
0.00246066
0.00245713
0
0.00120308
0
0
0.00116918
-0.0011672
0
0
0
-7.73385e-07
0
0
-0.00106749
0.00106274
0.0031781
0
-0.00418362
0.00207596
0
-0.00197054
0
0
0
-1.5757e-06
0
0
-0.00181819
0
0
0
-0.00169972
0.00337173
-0.0016628
-0.00166037
0.00166954
-0.00161303
0
1.08746e-06
0.0015457
-0.00152094
0.00152749
0.00149608
0.0014743
7.81422e-07
0
0
0.00134686
0
-0.0012896
0.00123266
0.00125435
-6.04092e-07
0
0
0.00120699
-5.11526e-07
-0.0011403
0.00111832
-0.00107904
0
0
0
0
0
0
0
0
0
0
-0.0016276
-0.00160156
0.00319977
0.00307738
-0.00149099
-0.00143897
0
0
0
0.00262316
0
-0.00118345
0
0
0.00107705
0.00104694
0
0.00192176
0.00183604
0
0
0.000792056
0.000756783
-0.000705157
-1.82985e-06
1.84387e-06
1.84489e-06
-1.86802e-06
0
0
0
0
-0.000374131
0.000333423
0
0
0.000457024
-0.000412872
2.03853e-06
0.000278537
0
-0.000199226
-0.000152945
0
0
0.00174849
0.0013109
0
0.00218922
0.00203768
9.22732e-06
0.000957604
0.0019108
-0.000949909
-0.000946133
7.51475e-06
0
-0.000922233
0.000919176
0.000914837
0.000905764
0
0
0
0
0
0
0
0
0.000874197
-0.000867529
0
0.00086114
0.000855525
0
-0.00169627
0
0
0
-0.00166045
0
0
-0.00163515
0.00162858
0
0.00160922
-0.00319464
-0.00158572
0.00157631
1.71908e-07
0.00155473
-0.00154579
0.00153125
0
0
0
0.00149199
5.86751e-07
0.00146824
0
0
0.00143193
0.00140521
9.37959e-07
0
0.0027407
0.00136309
0
0.00135722
-0.00267961
-0.00132971
-0.00131075
-0.00130446
0
0.00129185
0
0.00125843
0
-0.00123661
-0.00120346
-1.23466e-06
0
-0.00118533
0.00116972
0
-2.26916e-06
0.00223665
0.00225531
-0.00225461
0
-0.00214446
0
0
-0.00207767
-0.00210357
0
0.0020796
0.00389043
0
0
0
-0.00184724
-0.00183302
0.00350196
0.0035225
0.00176761
0.00171557
-0.00173337
0.00170438
-0.00171586
0
-0.00167655
0
-0.00152625
0.00143648
0
0
-0.00140207
0
0.00283252
-8.11064e-07
0
-0.00132646
0
0
0.00127349
-0.00125646
-0.00123922
0.00243227
0.00234262
0
0
0
-0.00218523
0
0
0
0
0
0
0.00358536
0
-0.00352365
-0.00165856
0
0.00160231
0.00151793
0
0.00147086
-0.00144125
0
0
0
0
0.00115808
-0.00223582
0
-0.00104622
-0.000994238
0
0
0
0
0.000758863
-0.00143866
0.000678371
0.00128273
-0.000593462
-0.000553688
0
0
0
0
0
0
0
0
0
0.000692718
0
0
-0.00023481
0.000174271
0
0
0.0018383
0
0
-0.00108111
-0.00100996
-0.00198573
-0.000980988
-0.000988997
0.000991988
0.00196527
-0.000972176
0
0
-0.00197464
-0.000982694
0
0
0
0
0
0
0
0
-0.000957443
-0.000952342
0.000950246
0
-0.000940524
0
0.000933119
0.000928879
0
0.000919679
0
0
0
0
0
-0.00177505
0.00176158
0
0.00173512
0
-0.00342659
-0.00169898
-0.00168644
0.00335036
-0.00166317
0
0
-0.00161454
0
0.00318457
0.00158522
0
0
-0.00309857
-0.0015163
0.00149932
0
-0.00148483
-0.0014673
0
0
0.00145754
-0.00142893
0.00140085
0
0
-1.61877e-06
0
0.0013468
-0.00132187
0.00131276
1.59487e-06
-0.00257049
0
0.00127536
0
0
-0.00251385
-0.00243216
0
-0.00242051
0.00227071
0.00227678
0
0
0.00445016
0
0
-0.00221383
-0.00206385
0
-0.00205247
-0.0020574
0.00394987
0
-0.00188922
-0.001898
-1.70238e-06
-1.64043e-06
0.00186734
0
0
0
-0.00178477
-0.00171214
0
0.00153699
-0.00162803
0
0
0
-0.00147745
-0.00144972
0
0
-0.00139682
0
-0.00132045
0
0.00133788
-0.00262215
-0.00253494
0
-0.00232595
0
9.52112e-07
0
0
-0.00209838
0.00206959
-0.00201338
0
-0.00387591
0
0.00185506
0.00174507
-0.0017761
-0.00172745
-0.00166052
0
-0.00155529
-0.00150915
-0.00143436
0
0
0
-0.00125571
0.00119576
0.00114873
0.0011151
-0.00105154
0
0
0
0
-0.00081121
1.9271e-06
-0.000719779
-0.000681528
0
1.98913e-06
-0.000542182
0.000511197
0.000453938
0
0
0
0
-0.000521067
0
-0.000404657
0
0
0.000245615
0
0
0
-0.00178779
0
0
0.0011342
0
0.00106729
0.00105393
0.00107574
0
-0.00107489
-0.00107986
0
0.00108326
0.00108005
0
0
0
0
0
0
0
-0.00106636
0
0.00211478
0
-0.00104774
0.00104172
-0.00103691
0.00103169
-0.00102416
0
0
-0.0010041
-0.000996414
-0.00098847
0
0
0
0.000959825
-0.00190299
0.00189278
0
0
1.58824e-06
0
0
-0.00358229
-0.00178127
-0.00175981
0
0.00172101
0
-0.00170775
-0.00169766
0
0
0.00164969
0
0
0
0
0.00155145
-0.00156055
0.0015665
0
2.10826e-06
0
0.00151019
-0.00153452
-0.00149512
0
-0.00142619
0.00142063
0
1.89938e-06
1.88987e-06
0
0
0.00136809
0
-0.00132997
0
0
0.00260569
-3.10955e-06
0.00242618
0
0
-0.00237845
0
0
0
0
0
0.00437698
0.00220447
-0.00211249
0
0.00201093
0.00205233
-0.00401543
-0.00197276
0
0.00190357
0
0
0.00189686
0.00186371
0
-0.00343189
0.00175227
0
-0.00163589
0
0
0
0
0.00151725
7.57505e-07
0.00146975
0
0
0.0013628
0
0.00133902
0
0.00251449
0
9.57833e-07
0
0
0.00221954
-9.2868e-07
0.0021887
0
0.00413549
0
-0.00195445
-0.00185941
0.00187763
1.40552e-06
0
0
0.00165539
0.00159196
0.00153425
0.0014489
0
-0.00136541
-0.00132708
0.00125841
-0.00122692
-0.00116627
0.00110455
0
0
0
0.00089945
-0.000856304
0.000807302
0.000760989
0
0
0.000625224
1.96616e-06
-0.00108329
-0.000477234
0
0
0.000352335
0
0.000569618
0.000252731
0
-0.000356325
0
0.000261845
0.000207318
0.000192877
0
0
-0.00124751
0
-0.00110574
0.0011044
0
0
5.41495e-06
0
0
0.00119212
0
-0.00120995
-0.00121398
0.00121557
0
0
0.00121106
0
0
0
-1.3479e-07
0
-0.0023474
0
0
-0.00114468
0.00113592
-0.00112548
0
0
0
0
0.00107225
0.00106208
0
0.00104313
0
-0.00102624
0.001014
-0.00201794
0
-0.000990991
0.0029446
0
0.00192507
2.46565e-06
2.48394e-06
0.00374016
0
-0.00182228
0
0
-0.00179933
0
0
0
-0.00173013
0
0.00168649
0
-0.00164955
0.0016664
-2.43802e-06
0
0.00162701
0
-0.0016202
0.00161769
0.00158227
0
0
0.00150167
0
0.00145587
0.00144841
-0.0014569
0
-0.00143565
0
0.00279198
0
0
0.00135938
-0.00388363
-0.00255939
-0.00127601
0
0
0.00247181
0
0
0.00236367
0.0023839
-2.57083e-06
0
0