/*--------------------------------*- C++ -*----------------------------------*\
  =========                 |
  \\      /  F ield         | OpenFOAM: The Open Source CFD Toolbox
   \\    /   O peration     | Website:  https://openfoam.org
    \\  /    A nd           | Version:  8
     \\/     M anipulation  |
\*---------------------------------------------------------------------------*/
FoamFile
{
    version     2.0;
    format      ascii;
    class       volScalarField;
    location    "200";
    object      wpod_3;
}
// * * * * * * * * * * * * * * * * * * * * * * * * * * * * * * * * * * * * * //

dimensions      [0 1 -1 0 0 0 0];

internalField   nonuniform List<scalar> 
12225
(
-7.89993e-16
-2.36742e-16
7.00494e-17
-8.88571e-17
2.31581e-17
2.36516e-17
2.07767e-17
3.98159e-17
1.91237e-17
-1.44528e-17
-6.57431e-18
9.41768e-18
-3.5374e-18
-1.98881e-18
1.08314e-17
3.55486e-18
6.42616e-18
-2.11031e-18
-1.06917e-18
4.95295e-18
3.7233e-18
-9.90265e-20
1.39311e-19
5.90378e-18
2.25013e-18
3.37368e-18
-4.45641e-18
1.22993e-18
-2.15592e-18
-3.0227e-18
-7.02023e-20
2.32772e-18
4.0736e-19
3.92747e-18
1.29879e-18
3.06736e-18
-3.84824e-18
2.0159e-18
3.43081e-19
-1.46794e-18
4.6128e-18
3.1888e-18
-1.9557e-18
1.98853e-18
-4.03019e-19
-1.00566e-18
4.92738e-19
6.98275e-19
1.60755e-18
-1.63377e-18
3.18719e-18
-1.65358e-18
-2.98479e-18
-1.86307e-19
3.40215e-18
1.24132e-18
4.50374e-19
2.67925e-19
7.02737e-19
1.66709e-18
-4.7729e-19
-3.54886e-18
-6.73563e-19
8.03153e-19
1.2749e-18
1.95616e-19
1.81689e-18
4.16044e-19
-1.37599e-18
1.04007e-18
-5.74639e-19
6.49309e-19
-1.8652e-18
-7.20459e-19
-1.77302e-19
3.12887e-19
4.8644e-19
5.41811e-19
3.2014e-19
-2.3667e-19
2.36209e-19
1.73816e-19
-2.81172e-19
1.09052e-19
4.52772e-19
1.07553e-19
-3.42759e-19
-9.59327e-20
7.04229e-21
-6.38665e-21
4.90259e-20
-8.25708e-20
-5.83379e-20
-2.68638e-20
3.86398e-21
3.34405e-20
3.78783e-21
8.01372e-20
3.39347e-20
-1.07083e-20
-1.01991e-20
-7.83874e-21
-4.45082e-21
0
0
0
0
0
0
0
0
0
0
0
0
0
0
0
0
0
0
0
0
0
0
0
0
0
0
0
0
0
0
0
0
0
0
0
0
0
0
0
0
0
0
0
0
0
0
0
0
0
0
0
0
0
0
0
0
0
0
0
0
0
0
0
0
0
0
0
0
0
0
0
0
0
0
0
0
0
0
0
0
0
0
0
0
0
0
0
0
0
0
0
0
0
0
0
0
0
0
0
0
0
0
0
0
0
0
0
0
0
0
0
0
0
0
0
0
0
0
0
0
0
0
0
0
0
0
0
0
0
0
0
0
0
0
0
0
0
0
0
0
0
0
0
0
0
0
0
0
0
0
0
0
0
0
0
0
0
0
0
0
0
0
0
0
0
0
0
0
0
0
0
0
0
0
0
0
0
0
0
0
0
0
0
0
0
0
0
0
0
0
0
0
0
0
0
0
0
0
0
0
0
0
0
0
0
0
0
0
0
0
0
0
0
0
0
0
0
0
0
0
0
0
0
0
0
0
0
0
0
0
0
0
0
0
0
0
0
0
0
0
0
0
0
0
0
0
0
0
0
0
0
0
0
0
0
0
0
0
0
0
0
0
0
0
0
0
0
0
0
0
0
0
0
0
0
0
0
0
0
0
0
0
0
0
0
0
0
0
0
0
0
0
0
0
0
0
0
0
0
0
0
0
0
0
0
0
0
0
0
0
0
0
0
0
0
0
0
0
0
0
0
0
0
0
0
0
0
0
0
0
0
0
0
0
0
0
0
0
0
0
0
0
0
0
0
0
0
0
0
0
0
0
0
0
0
0
0
0
0
0
0
0
0
0
0
0
0
0
0
0
0
0
0
0
0
0
0
0
0
0
0
0
0
0
0
0
0
0
0
0
0
0
0
0
0
0
0
0
0
0
0
0
0
0
0
0
0
0
0
0
0
0
0
0
0
0
0
0
0
0
0
0
0
0
0
0
0
0
0
0
0
0
0
0
0
0
0
-0.00228405
0.000548002
0
0
0
-0.000305743
0
0
0
0
0.000655141
0
0
0
0
0.000432342
0
0
0
0
0
0
0
0.000387563
-0.00037196
0.000358325
0.000349293
0
0
-0.000313702
-0.000306302
0
0
-0.000283373
0
0
0.00026254
0
0.000251012
0.000490176
0
0
0
0
0
0.000452729
0.000446094
0.000443395
0
-0.000441677
0
0.000435869
0.000435372
0
0
0
0.000432464
0
0
0
0
0
0
0
0
-0.000436497
0
0
0.000440763
0.000445986
0
-0.000448925
0.000452692
0
-0.000456188
0
0
0.000466593
0
-0.000474208
0
0.000481135
0.000482746
0.00048736
0.000981354
-0.000987044
0
0
0
-0.00101497
-0.00102074
0.0010297
0
-0.00104219
-0.00104815
-0.00105362
0
0
0
-0.00106869
0
0
0.00107286
0
0
0.00106721
0
0
-0.00104799
-0.00103772
0
0.00101038
0
-0.000974
0
-0.000926603
-0.00089937
0
0
0
0
0
0
0
-0.0006533
0.000625509
0
0
0
0
0.000948308
0
-0.000830663
0.000764114
0
0
0
-0.000506048
-0.000445431
0
-0.000332088
-0.000274541
0.000222689
0
0
7.31156e-05
0
0
0
0
0.00013705
0.000172865
0
0.000235813
0
0
0.000312993
0
0.000347351
0
0
0.000375903
0
0.000377439
0
0
0
-0.000331201
0
0.00029211
0
0
0
0
0
0
0
-0.000314425
0
0
0.00484797
-0.00216197
0
0.000795209
0
0.000298328
-0.000515009
-0.000457807
0
-0.000393401
-0.000189983
0
0
0
0
-0.00018007
0
0.000341174
0
0
-0.000331677
0
0.000325907
-0.000160695
0.000156822
-0.00015208
-0.000147983
0
0
0.000139118
-0.00013368
0
0
0.000126833
0
0
-0.00012021
0
0.000115344
-0.000232217
0
0
-0.000450409
-0.000448874
-0.000447366
0.000220572
-0.00022274
-0.000660792
0.000439147
0.000222098
0
-0.000223773
0.000219687
0
0
0
-0.000227382
0
0.000454178
0
0.000458462
0
-0.000464327
0
0.000470919
-0.000235408
0
-0.000482515
-0.000245881
-0.000247635
0
-0.000247617
-0.000254505
0
0.00025777
-0.0005153
0
-0.000263558
0
0.000797511
0
-0.000812633
-0.000272842
0.000271545
0.000546305
-0.000551135
0
0
0
0.00169434
0.000569923
-0.000573689
0
-0.000569634
0.000578059
0.000579828
0
0
0
0.000582783
0
-0.00115998
-0.0017304
0.00115196
0
0.000566998
0
0.00112982
-0.000558773
-0.000556938
0
-0.00164907
0.00108793
0.000539862
0
0.00052483
0.00155321
0
0.00101366
0.000995633
0.000979977
0
0
0
-0.000458534
-0.000451341
0
-0.000871793
-0.000858438
0
-0.000820611
-0.00161223
0.000792856
0.000774324
0
0
0
0.000694664
-0.000684402
-0.00132437
0.000642108
-0.000629848
-0.000611613
0
0
0.000572084
0
0
-0.00104018
0
-0.000505556
0.000481759
0
-0.000458605
0
0
0.000417523
-0.000836969
0.000400624
0
0
-0.000376871
0
-0.000361924
0
0
0
-0.000328161
0
0.000325244
0
0
-0.000620192
0.000628451
0
0
0
-0.00164617
0
0.0010154
1.51622e-06
0.00333255
0
-0.00131942
0
0
1.2798e-06
0.000341146
0.000313581
0.00029582
0
0
-0.000262634
-0.000512074
0.00049904
0
0.000473898
-0.000232977
0
0.00043931
0.000216162
-0.000416954
-0.000205928
0
0.00038886
0.000378343
0
0.000361315
0
0.000346582
0.000171256
0
0
0
0
0
0
0.000307115
-0.000461367
0
0
0
2.78396e-06
0.000305888
0.000608639
-0.00061086
-0.000303542
0.000305688
-2.92391e-06
0.000304908
0
0.000307672
-2.99233e-06
0
0
-0.000316583
0
0
0.000320637
0.0006516
-0.000331285
0
0.00033721
0
0.000338979
0.000347232
-0.000694934
-0.000347761
0
0.000716286
0
0.0011032
0.000742054
0.000748004
-0.000752452
0.00113954
0
0
-0.000779601
-0.00117742
0
0.000399975
0
-0.00121473
-4.61168e-06
4.50538e-06
0.000826015
0
-0.000829585
-4.00177e-06
0
0
0
0.000851212
0
0
0
0
0
0.000860332
0
0.000863516
0.000856522
-0.000857698
0
-0.000850586
0
-0.000841394
0.000835261
0.0025058
0
0.0024961
0.000826162
0
0.00162394
0.00160568
-0.00238864
0
-0.000788879
-0.000778643
-0.0023073
0
0
0
-0.000738776
0
0
0.000712014
0.000707342
0
0
0.00136867
0
-0.00133168
-0.00131332
0
0
0.00125648
-3.34156e-06
-3.4437e-06
0
0.0023795
0
0
0
-0.00112983
0
0.00219096
0.00108483
0
0.00106884
0
0
0.00305055
-0.00201125
0
-0.00198039
0.000990757
0
0
0
0.00278318
0
0.000911307
0
0
0
0
0
0
0.00172037
0
0.000843008
-0.00255454
0
0
0.00163125
0.00159361
-0.00156654
-0.00155893
-0.00716547
-0.00448007
-0.00162147
-0.000552455
0
0.000728309
-0.00031768
0
-0.000264983
0
0.000465387
0
0.000215884
0.000417659
-0.00040477
0
-0.000379499
0
0
-0.000348491
0
4.33999e-06
0
0
-3.94825e-06
-0.00029793
-0.000286903
-0.000284842
0
-0.000542697
0
-0.000256336
0
0
0.00024416
0
-0.000240569
-2.58261e-06
0.000480554
-0.000476834
0
0
-0.000238517
0
-0.000243246
0.000243538
0.000243928
0
-0.000245876
-0.000247463
0.000492942
-0.000250466
-0.000252113
0
0
0.000259704
0
0
-0.000535125
-0.000540486
0
0
0
0
-0.000570377
0.000571463
0.000581554
0.00117143
0
-3.90396e-06
0
-0.000612496
-3.74203e-06
-0.000624827
0.000630781
-3.56451e-06
0
0.000641795
0.000651589
0.00130932
0
-0.000663647
0
0.00135019
-0.000680918
0.000685464
-0.000690501
-0.00137966
0.000695663
-0.000698479
0
0.00140555
0
0.00141267
-0.00141787
-0.00142285
0.00142514
0.00142601
0
0.000714005
0
0
0.00142953
0
0
0.00142428
0
0
0
-0.00280494
0
-0.0027865
-0.00138938
-0.00138205
-1.32063e-06
-0.00135802
0.00269597
0.00133775
0
0.00132301
0.00262406
0
0
0
-2.5063e-07
0
0
0
0
-0.00242992
0
0.00238591
0
0.00233791
0.00115337
-0.00227971
0.00226414
0.00112106
-0.00111102
0.00109523
0
0.00108071
0
0
0
0.00207479
0
3.84825e-06
0
0
0.00199593
0
0
-0.00192951
-3.93666e-06
0
0.00189473
0.00189454
0
0
-0.00185256
3.30753e-06
0
-0.00179335
0
0
0
0.00174881
0
0
-0.00172833
0
0
0.00342438
0
0
-0.0016651
-0.00327792
0.00161853
0
0.00450699
0.0025101
0.00140287
0.000988343
0
-0.00131465
2.65855e-06
0
0
0
-0.000412103
0
0
0
0
0
0.000318062
0.000307059
0
0
-0.000286424
0.000560461
0
0.000262757
-0.000260357
0
0.000742505
-0.000483645
0.00047337
0.000233991
0
0.000661702
0
0
-0.000210173
0.000411749
0.000617968
-0.000616535
-0.000207498
0.000415827
0
0
4.90944e-06
0
-0.000416998
-0.000419777
-0.000422479
0
0.000427757
0
-0.0008751
0
0.00044391
0
-0.000453914
0
0
0
0
0
0
0
-0.000496983
0
0
-0.000517211
0
-0.000528096
-0.000530322
-0.000538471
0
0
-0.000555723
0.00111605
0
-0.00170762
0
-0.000580762
0
-0.000591582
-0.0011869
0.000600333
0
-0.000609375
0.00122241
0
0
0.00124475
0
-0.00125248
0
-0.00126559
0
-0.00253922
0.00127246
0.00255084
-0.00127725
-0.001278
0
-2.41185e-06
0
0.00128007
-0.00128252
0
0
-0.0012771
0.00127219
0
0
0.00125927
0
0.00124591
0
0.00123579
-0.00122726
0.00243636
-0.00120927
-0.00120165
0
-0.00118651
-0.00117725
0
0
-0.00230483
0.00114316
-0.00226318
0
0
0
0.00438051
0
-0.0021538
0
-0.00211601
0
0.00207382
-0.0020558
-0.00203901
0.00202354
0
0
1.55376e-06
0
0
0
-0.0019093
0
-0.00187372
0
-0.00185592
-0.00184513
0.0018419
0
-0.0018105
0.00179324
0
0.00177993
-0.00353464
0
-0.0034982
0.00174272
-0.00171947
0
0.00169285
0
0
0
-0.00166165
0
0
0
0
0
-0.00162262
0
-0.0032083
0
0.00315055
0.00308983
0
0
-0.00214086
0
0
0
3.46672e-06
3.45491e-06
-0.00046815
0
0
0
0
0
-0.000639037
0
0.000591041
-0.000289074
-0.000279106
0
0
0.000256181
-0.00024949
0
-0.000236899
0.000453352
0
-0.000443873
0.000438078
-0.000429786
0
0
-0.000399201
0
0
0.000370822
-0.000744007
-0.000375148
0.000746362
-0.0003721
0
0
0
0.000385254
0
0.000387172
0.000389308
0.000391642
0.00039003
-0.000398447
0
0.000407107
0
-4.17569e-06
0
0.000849466
0
-0.000433413
0
0
-0.00089965
0
0
0.000469881
0
0
-0.000966425
0
0.000986781
0.000501651
0
-0.00102057
0
0.00104293
-0.00210664
0
0.00107368
0
0
0.00109691
0
0.0011181
-0.0011209
0
0
-0.00115291
0.00115482
0.00115866
0.00116548
0
0.00117819
0.00117743
0
0
0.00119116
0
-0.00119496
0
0.00119315
0
-2.0321e-06
0
-0.00120068
0
0
0
0
-0.00118957
0
0
-0.00235265
0
0
0
-0.00229214
0
-0.00226713
0
0.00223129
-0.002219
0
0.00219195
0
0
0.00430386
-0.00212833
0.0021078
0
0
0
-0.00408803
0
0.00200572
0
0
0
0
0.00192248
0
-0.00189473
0.0018737
0.00185912
-0.00184123
0
0
0
0
0
0
0
0.00174338
0
-0.00173059
0
0.00511613
0
-0.00336985
-0.00167638
0.00166198
0
0.00329132
0
0.00325794
0
0
0
0
0
-0.00314946
-0.00313191
0
0
0
0
0.00305641
0
0.00606326
-0.00301221
-0.00297774
-0.00293413
-0.00287698
0
0.00186947
0
0.00165485
0.00132845
-0.000554288
-0.000480172
-0.000426966
-0.000782604
0
0
0.000634229
0
0.00116521
0
-0.000547073
0
0
0.000482814
0
0.000455056
0
0
0
-8.18918e-06
0
0
0
0
0
0
-0.000356269
0
0.000341563
-6.75918e-06
0.00034505
0
-0.000348101
0.000349632
0
0
0
0
0
0
-0.000362696
0.000365531
-0.000373497
0.00074427
0
-0.000762859
0.00077295
0.000387392
0
-0.000406661
0
0.000417392
0
0
0.000867364
0
-0.000883193
0
0
0
0.00186273
0.000938328
-0.000954272
-0.000959039
0
0.000987076
0
-0.00100712
4.8064e-06
0
0
-0.00103793
0
-0.0010576
0
0.00107371
0.00108329
0
0
0
-0.00111202
-0.00111624
-0.00112376
0
0
-0.00113551
-0.00113852
0
0
0
0.00228618
0
-0.00114323
0
0.0011477
0
-0.00229615
-0.00228957
0.00229261
0
0
-0.00227014
0
-0.00225524
3.45957e-06
0.0022347
0
0
0.00218891
0
0
0.00214149
-0.00213445
0.00423595
0
-0.00210125
0
0
-0.00410652
0.00203044
0
0
0
0
0.00195297
-0.00193443
-0.00191646
0
0
0
-0.00185012
-0.00366523
0
0.00541529
-0.00178968
-0.0017742
0
0.00349976
0
0
0
0
0.00336584
0
0
0
0
0
1.60815e-06
-0.00323616
0.00321675
-0.00320679
0
0.00315838
0
-0.00313167
-0.0031102
0
0
-0.00304826
-0.0030275
-0.00301314
-4.51554e-07
0.00298573
0
0
0
-0.00291313
-0.00290973
0
-0.00576922
4.10536e-06
5.63195e-06
0.00278204
0.00546953
0.0063503
0
0
-0.00309418
-0.00125501
1.03022e-05
0.000915584
9.60738e-06
0.000733293
0
0
-0.000589022
0
-0.00053833
0
0
0
0
-0.000448412
0
-0.000419137
0
0
-0.00038013
-0.000382027
-0.000367213
-0.000361596
0
-0.000348669
-0.000341391
-0.000334041
0.000333766
0
-0.000321164
-7.28312e-06
0.000313566
0.000316359
0
-0.000323698
0
0
0.000665849
0.000672428
0
0
0.00103918
-0.00105105
0
-1.00153e-05
0
0.000741114
-0.000751413
-0.000762073
0
0
0
0.000798319
0
-0.000820784
0
0
0.000861691
0
0
0
-0.00180342
-0.000915392
0
5.63437e-06
0
-0.00095153
0.000963385
-0.000973108
0.000987358
0
-0.00100259
4.35417e-06
0
0
-0.00103663
-0.00104994
-0.00105427
-0.00105946
0.00106401
0
0
0
0
0.00218999
0
0
0.00332371
0
-0.00221287
0
-0.00222667
0
-0.00221272
0
-0.00223089
0
0.0022276
0.00444665
-0.00222387
0
0.00221126
0.00220307
0
0.00218729
0.00218067
-0.00216989
0.00215165
-0.00213565
-0.00211431
0
0
-3.07269e-06
0
-0.00204859
-0.00203695
0
0
-0.00199444
0.00198024
0
0
0
-0.00191321
-0.001903
0
0.00186982
0
0
0
0
0.001789
0.00177068
0.00350912
-0.00348636
-0.0034606
-0.00343466
0
-0.00678882
0
0
0
0
-0.00326743
0
0
0.00320777
0
0
7.63678e-07
0.0062717
0.00311061
0.00310722
-0.0030831
-0.00611131
0.00303541
-2.80428e-07
0
0
0
0.00295219
0.00293061
0.00291097
2.63107e-07
0
0
0
0
0.00280939
0
0
0.00277903
0.00275515
0.00272975
-0.00267417
-0.00262879
-0.00577084
-0.00301315
0
0.00147945
0
1.17478e-05
0.000852629
0.000758548
0
0.000602677
0
0
0
0.000477457
0
0
-0.000428263
0
0
0.000382605
0
0.000361723
0
0.000702889
-0.000341068
9.36869e-06
9.20017e-06
0.000325738
0.000327441
0.000632367
8.48638e-06
0
0
0.000578421
-0.00029685
-0.000300146
-0.000305393
0
0.000922575
-0.000616017
-0.000621832
-0.000642215
-0.00064976
0
0.000652765
-0.00133119
0.000679151
0.000676035
-0.00137997
0
0
0
0
0.000740401
0
0
-0.000783772
0
0.00160526
0
-0.00082193
0
0
0
0
0.000882842
0
0.000898147
5.75993e-06
0
0.000935076
-0.000945333
0.000954946
0
0
0.00196106
0.000991525
0
0
0.00303776
0
0.00308616
0.0010357
-0.00104027
-0.00208865
0
0
0
-5.82332e-06
0.0021437
0
-5.19954e-06
0
0.00217312
0.00216617
-0.00216796
0
0.00216851
0
-0.00216699
0
-0.00217065
-0.00217571
0.00216518
0
-0.0043211
0
0
0
0
0
-0.00210035
0.00209169
0.00206861
0
0
-3.46724e-06
0
-0.00199423
0.00397667
0
-0.00392359
0.00583629
0
0.00380642
0
0
0.00185866
0.0018465
-0.00365476
-0.00362823
0
0
0
0
0
0
-0.00685851
0
1.47756e-06
0.00335979
-0.00333616
0.00331606
0
0
0
0
-0.00320498
0
-0.00314058
-0.00625808
0.00312544
0
-0.00307904
-0.00306224
-0.00303117
-0.0030407
0.00301417
0.00298647
-0.00296817
0.0059268
0
0
0.00289759
-0.00289403
0
-0.00568187
0.00283854
0
0
0
-0.00549348
-0.00547529
0
0
0
-0.0053506
-0.00528535
0.00516971
0
0
0.00287214
0
0.00141683
0
0.000953728
-0.000811911
0.000693756
0
-0.000563506
0
0
0
-0.000438671
0.000414547
0
0.000772099
-0.000366712
0
-0.000352731
0
-0.000334544
-0.000318829
-0.000640131
0.00063829
0.000324028
0.000939063
-0.000312251
0.000590135
-0.000873381
0.000290354
0
0.000543085
-0.000558021
-0.000545969
0
0
0.000572755
-0.000592779
0.00118638
0.00120084
0
0
0
-1.18036e-05
1.14784e-05
-0.000644458
-0.000663961
0.00133662
0
0
0
0.000708723
-9.2091e-06
0
0
0
0
-7.97711e-06
0
0.00161187
0
0
0
0
0
-0.000870033
-0.00176692
0.000895456
0
0.00182484
-0.00184264
0
0.00187769
-0.00189943
-0.00288726
0
0
0
-0.00199519
-0.00200461
-0.0040357
0
0.00203279
6.91538e-06
0.00206157
0.00206886
0
-0.0042047
-0.00421273
0
-0.00212607
0
0
-0.00213448
4.80791e-06
0.00212299
0
0
0.00426108
0
4.50736e-06
0
-0.00212932
0
0.00211643
0
0
0.00208607
0
0
0
-0.00204136
-0.00201787
0
-0.00398095
-0.00197528
0.00391846
0.00194708
0.00193775
-0.00387316
6.34423e-06
-0.00380872
-0.00375597
-0.00744371
0.0036989
0
0.00362289
0.00359665
0.0035666
5.08317e-06
0
0
0
0
0
0
0.00671897
0
0.00662742
0
0.00653847
0
-0.00322577
0
0.00317974
0
0.00630577
0
0.00308421
4.42945e-07
-0.00615421
0
0
0
0
0.00299064
0
0
0
-0.00873161
-0.00578511
0
-0.00285204
0.00285321
0.00564935
0.00560058
0.00558424
0.00555749
-0.00549143
0
4.30657e-06
0.0107597
0
0
0
9.43247e-06
1.11238e-05
-0.00507776
0
0.00497597
-0.0027663
0
-0.00137942
0
-0.000886282
0
-0.000653125
0
0.000506335
0
0
0
-0.000384239
-0.000380428
0
-0.000350219
0.000337877
0
0
0
0
0.000302047
0.000300533
-0.000300343
0
-0.000585666
0.000553432
-0.00110156
0.000548566
0
0
-0.000529109
0
0.000539352
-0.000532472
0
-0.00111403
0
-0.000579424
-0.00058533
0.000579896
0
0
-0.000618622
1.13908e-05
0.000637054
-0.000636309
-1.05052e-05
0
0
-0.000680378
-0.000701404
-0.00071293
-0.000715526
0
0
0
-0.000770001
0
-7.49477e-06
-0.000797666
0.000809604
0
-0.00166329
0.00168668
0.00256892
0.00259855
0
0
-0.00180396
0.00182447
0
-0.00186144
0.00187795
0.00190026
0
0
0.00194413
0
0.00197952
0.00198957
0.00199651
-0.0020112
0.00202255
-0.00203975
-0.00408503
0
0.00206656
0.00207046
0
0
0
-0.00207507
0
0.00209479
-0.00208828
0
0
-0.00209792
0
0.00419658
0
0
0
0.00207003
0
0
-0.00614011
0
0
0
0.00598766
0.00198193
0
0.00391118
0.0038748
-0.00770885
0.00381602
-0.0038128
7.46269e-06
0.00377528
0
0.00369175
0.00364682
-0.00363718
0
-6.47124e-06
-0.00704784
0
0.00347092
0
0
0
0
0
0
-0.00330329
0
-0.00324924
0.00322622
-0.00320344
0
0.00316709
0
-1.21499e-06
0
-1.03248e-06
0
0
0.00303372
0.00303281
0
-0.00596135
0
0
0
0
-0.00580152
0
0.00572221
3.01685e-06
0.00568295
0
0
-0.00558694
-0.00553838
-0.00551336
-3.91404e-06
0.00541954
0
0.00533628
-0.0106286
0
0
-0.00523564
0.0103772
1.10822e-05
0
0
-0.0048432
0.00274446
-0.0017569
0
0
1.64766e-05
0
0
0
-1.32916e-05
0
0
0
0.000363948
0.000669268
0
0
0
0.000583962
0.000572726
-0.000560896
-0.000549624
0
0
0
0
0
-2.03335e-05
0.000518965
0
0
0
0
0
0
0.000532281
0
0.000549917
0
0
0
-0.000579278
0
0
0
1.10157e-05
0
0.00125689
-0.000644033
0
0
0.000676159
-0.000678372
0
0.000710697
0.00071392
0
0
0
0
-0.000780124
0.000791919
-0.000803713
0.00161501
0.00328635
-0.00167547
-0.00169811
-0.00171756
0
0
0
0
0.00181449
0
0
0
-0.0018799
0
-8.60053e-06
0
-0.00194831
0
-0.00197925
0
0
0
0.00201991
0
0
0.00203168
0.00204032
0.00205347
0
5.66973e-06
0
-0.00205714
0
0
0.00206672
0
0
-0.00205912
-0.00205666
0
0
-0.00203919
0.00404778
0
0.00402242
0
0
0.00393505
-0.00391231
-0.00387845
0
0
-0.0038131
0.00379336
-0.00375494
0.00371597
0.00370663
0.00368931
0.00366212
0
-0.00356678
-0.00355423
0
-0.00348869
7.0837e-06
-0.0034158
0
0
0
0
0
0
0.00326166
0
0.00321438
0
-0.00316676
0
0
0.00310623
0
-0.00615496
0
-0.00305137
0
0
0
0
0
0.0117564
-0.00586943
-0.00585553
0
0.00576429
0.00574478
0
0
4.00012e-06
-0.00559889
0
-0.00555501
0
0.00550735
0
-0.0108351
0
-0.00533957
0
0.00527537
0
0
0.00517732
-0.00515148
1.10654e-05
0.00496507
0
0
0
0.00168355
0
0
0.000766709
0
0.000535933
0
0.000405966
0
0
0
0
-0.000638155
0.000590942
0
0
-0.000567742
-0.000552449
2.61993e-05
0.000529124
0
0
0
0
0
-0.00096556
0
0
0
0
0.000483435
0.000491224
0
0
0.000516985
0
0
-0.000541285
0
0
0
0
0
1.03578e-05
-0.000604084
-0.000624046
0
-0.000635347
0
0
0.000678286
-0.00136292
0
-0.00071356
0
0
0
0
0
0
0.00157636
-0.00161333
-0.00163456
-0.0016449
0.00166548
0
0
0
0
-0.00177484
-0.00180678
0.00181699
-0.00183214
0
0.00373691
0
-0.00190301
-0.00190929
0.00386392
0
0
0.00195493
-0.0019697
0.00197897
-0.00199038
0
0
-6.65643e-06
-0.00202262
-6.32879e-06
0
6.06904e-06
0.00202458
5.92783e-06
0
0
-0.00204129
0
0
-0.00403717
-0.00201402
0
0
0
-0.00398234
0
0
0
0
-0.00773238
0.00382394
1.1417e-05
-0.00377501
0
0.00373208
0
-0.00368018
-0.00365252
0
-0.00361669
-0.00718421
0
0.00350692
0.00696164
0
0
0.00678465
7.5612e-06
0
0
0
0.00326542
0
0
-0.00640041
-0.00318306
-0.00316201
0
0
0.00307644
0
0.00304085
0
0.00302222
0
0.00599948
0.00596799
-0.00589049
0
0
0
-0.00579754
4.70893e-06
0.00577726
0
-0.00569961
0
0
0
0.00558026
0
0.00552591
0.00550089
0
-0.00544323
0.00542499
5.60846e-06
0.00533922
6.20852e-06
0
-0.00524125
0
0
0
0.00509578
1.10736e-05
-0.00991071
0
-0.00436583
-0.00230663
0
0
0
0
0
-0.000510417
0
-3.10288e-05
-0.000719127
0
0
0
0
-0.00113205
0
0
0
0
0.00100852
0
0
0
0.000471504
0
0
0.000485433
0
0.000470683
0
0
-0.0005027
-0.00100342
0
0
-0.000529585
0
0.000532467
0.000551604
-0.000548882
0
0
0
0
0.000604277
0.000614146
0
0
0.00064573
0
0
0
0.0013839
0
0
0.0014416
0
0.0014861
0
0
0
-0.00158758
-0.00159894
0.00161787
1.19102e-05
-0.00167313
0
0
0
0
0.00176957
0.00177882
-0.00181113
0.00183034
0.0018375
-0.00186035
0
0
8.64562e-06
-8.44026e-06
0.00191551
-0.00192653
-7.93577e-06
0.0019515
-0.00391224
0.00196901
0
0.00197453
-0.00198801
0
-0.00199809
0
-0.00199354
0.00198898
0.00199892
-0.00398515
0
0
0.00399081
0
0.00397112
0.00396319
0
0.00393323
0
0
-0.00387037
0
0
0
1.28498e-05
-0.0037667
0.00374479
0.0037205
0
-0.00732797
0.00363736
0.00361476
-0.00357877
0
0.00353742
0.00352223
0.00347033
0
-0.00341151
0
0
-0.00666229
0.00330494
0
0
0
-0.00320098
0
0
0.0031336
0.00312103
0.00619662
-0.00614268
0.00609121
-0.00302884
0
-0.00600023
0
0
0
-0.00589885
-0.0117591
0.00582302
0.00579661
-0.00577389
-0.00575048
0.00572971
5.7634e-06
0
0
-0.00563967
0
0.00558565
0
0
-0.00551028
-0.0109914
0
0
0.0107648
-0.00537679
0.00534092
-0.00532172
0.00527145
0.00524574
0.0104428
0
0
0
-0.00506894
0.00502829
0.00495761
0
0.00410945
0.00217677
0
0
0
0
0
0
0
-0.000775781
0.000712617
0
0
-0.000556414
0
0.00106063
-0.000502276
0
0
0
-0.000500051
-0.000472698
0
0
-0.000487867
0.000469421
0
0
-0.00048425
-0.00050352
0
0
0
0.000527411
0
0
-0.000539116
-0.000547503
-0.000565864
0
0.000581918
0
0
0
-0.00121558
0
-0.00125421
0
0
-0.00131564
0
-0.00135661
0.00137792
0
0.00142014
0.00144124
-0.00147671
0
-0.0030186
0
0
0.00155898
0
1.19796e-05
-0.00163707
1.149e-05
0
0
0
0
0.00173484
0
-0.00177482
0
0
-0.00183577
-0.00184012
0
0
0.00187415
-0.00376703
-8.58303e-06
0.00191234
-0.00192302
0.00192358
0.00193895
0.00193433
0
-0.00584288
-0.00391114
0
0
0
0.00789272
-0.003939
0.00392278
0.00394568
0
0
-0.00394151
0
0
-0.00389111
0
-0.00388193
-0.00384368
0
0.00381302
0
0
0
0.00747234
0.00369746
0
0
0
1.20202e-05
-0.00717897
0.0035505
0.00353837
0.0034978
-0.00696621
-0.00344806
-0.00342533
0
0
0
0
0.00655534
0.00325954
0.00323426
0
0
0
0
0
0
0
-0.00608865
0.00605541
-0.00601615
0
0
0
-0.00589638
0
0
0
0.00580641
0
-0.0114877
0.00571147
0.00569061
-0.00567007
6.75428e-06
0
0
0.0111928
0
-0.0110407
-0.00548162
0
0.00547173
0.00546341
0
0
-0.0107142
0.0053353
0.0053073
0
0
-0.00523356
-0.00520685
0.00516885
0
0
0
0
0
0
0
-0.00402695
0
0
-0.00142957
0.00115318
0
0.000831301
0
0
0
0
0
0.000522086
0
-0.000479326
2.63299e-05
0
-0.00044875
0
-0.000452172
0.000472774
0
0
0
-0.000484271
0.00047734
0
0.000503526
0
0
0.000513525
0
0
0
-0.000543044
0.000558491
0.000566135
0
0
0
0
-0.00119008
-0.00120784
0.00245075
0
0.00126839
0
0
0.00132409
0
0.00135726
-0.00273754
0
-0.00280991
-0.00142585
0
0
0.00147651
0
0
-0.00153126
0.00154832
0.00157602
0.00157536
0.00320986
0.00162274
0
0
0
-0.00167412
0.00167242
0
0
0
0
9.83911e-06
0
0
0
0.00361056
-9.11651e-06
0
-0.00365966
-0.00184511
0
-0.00552054
0
0.00372685
0.00375957
-0.00377425
0
0
-0.00375929
0
-0.00375854
0
-0.00374206
0.00375181
0
0
0.00375232
1.59364e-05
0
0.00369729
0.00369333
-0.00363938
0
0.00364202
0
0.00359423
-0.00358256
-0.00355293
0
0
0
0.00347457
0.00690629
-0.00683971
0
-0.00336282
0.00670904
1.09793e-05
-0.00329175
0.00324827
-0.00321857
0
0
-0.0031593
-0.0031561
-0.00312566
0
0
0
0
0
0
-0.00590309
0.00587585
0.0058597
-0.00582832
0
0
0
0.00573187
0.00571481
0
-0.00567287
0
0
0.0112358
0
0
0.0055425
0.0110803
0
0
-7.89299e-06
0.00546205
7.74752e-06
7.56728e-06
0.00536204
0.00536801
-0.00535806
0
0
0.005303
-0.00527986
-0.0105088
0.00523563
0
0
0.0102963
-0.0153618
0.0101546
0.0100841
0
-0.00991268
0
0
0
0.0081315
0.0025576
0
0.0028508
-1.25217e-05
-0.000978943
-1.64738e-05
0.000754542
0
0
-0.000558012
0
-0.000511506
0
0
0.00100423
0
0.000513373
0
0.000525068
0
0
0
0
0
-0.00112157
0
0
0.000584428
0
-0.00120364
0
0
0
-0.000619053
0
0
-0.00128798
0
0
0.00132754
1.32035e-05
1.321e-05
-0.0013872
-0.00138915
0
0
0
0
0
0
0.00299091
0.00150156
0.00307297
0
0
0
0
0.00160567
0
0.00163945
-0.00166764
0
-1.0908e-05
-0.00339159
-0.00345246
0
-0.00172936
0
0
-0.001769
0.00178456
0
0
0
9.77148e-06
0
0
0.00184273
-0.00188692
-0.00571276
0
0.00755468
-0.00379347
0
0.00380419
0
0
0
1.6784e-05
0
0
0.00386202
0
0
0
0.0038331
-0.0076913
0.00383552
0.00384788
-0.00383113
0.00379486
0
-1.64888e-05
-0.00371003
0.0037055
-0.00368768
-0.00371344
-0.00366672
-1.57007e-05
0
0
-0.00354292
0
0.00350236
-0.00349299
-0.00348446
1.25124e-05
0
0
-0.00338962
1.14715e-05
0.00331865
-0.00328234
0.00324783
0
0
0
0
0
0
0
0
0
0
0.005996
0.00595999
-0.0118478
-0.0117843
0.00586206
0.00581367
0
0
0
-0.0114858
0
0.005709
0
0
-0.00565978
-0.00562559
0
-0.011182
-0.011148
0
0
-0.00551323
-0.00548944
0.00545932
8.26288e-06
-8.11244e-06
-8.04922e-06
8.09348e-06
0
0
0
0
0.00527081
-0.0052476
0
0
-0.0102965
0.0102199
-1.94193e-05
-0.0100764
0
0.00991364
0.00978712
0
0
-0.00422252
-0.00266263
0
-0.00285252
-0.00231466
3.55999e-06
-0.000874814
-0.00152708
0.000668747
0.000629103
1.34369e-05
0
0.000580265
-0.000559076
-0.000559525
-0.000573186
0
0
0
0
0
0
0
0
-0.000647794
0.000665912
0
-0.000683635
-0.000694692
0
0.00140558
0
0
0
0.00145291
0
0
0.0015005
-0.00150295
0
-0.00152841
0.00305511
0.00154861
-0.00154599
1.21992e-05
-0.0015448
0.00155815
-0.00156654
0
0
0
-0.00162027
-1.20126e-05
-0.00166865
0
0
-0.00166141
-0.00166022
-1.11864e-05
0
-0.00346912
-0.00174092
0
-0.00177429
0.00355096
0.0017926
0.00180285
0.00181619
0
-0.00184234
0
-0.00188024
0
0.00192212
0.00188404
9.7823e-06
0
0.00190525
-0.00191853
0
1.92197e-05
-0.00386107
-0.00387129
0.003935
0
0.00389556
0
0
0.00399409
0.00400219
0
-0.00396574
-0.00796608
0
0
0
0.00386782
0.00392116
-0.00772782
-0.00768226
-0.00378905
-0.00378254
0.0037874
-0.0037838
0.0037393
0
0.00375368
0
0.00370587
-0.00368214
0
0
0.00356428
0
-0.0070207
1.3233e-05
0
0.0035025
0
0
-0.00335469
0.00334664
0.00328951
-0.00656923
-0.00653306
0
0
0
0.00635826
0
0
0
0
0
0
-0.0120263
0
0.0118035
0.00587866
0
-0.00581724
-0.00580511
0
-0.00574259
0.0057453
0
0
0
0
-0.00566769
0.0112855
0
0.00560284
0.00558478
0
0
0
0
-0.00545639
0.0108863
-0.00541856
-0.0107867
0.00537574
0.00535082
0
0
0
0
0
0
0
0
0
-0.0201603
0
0
0.00984794
-0.00977319
0
0
-0.00433522
0
0
0.00144388
0.00118679
0.00203863
0.000911165
0.000830561
-0.000766539
-0.00143299
0.000670649
0
0
0.00131182
0.000666786
0
0
0
0
0
0
0
0
0.000766553
0.000789658
-0.00080191
0
0.000820876
0
-0.000825518
-0.000838276
0
-0.000835474
0
0
0
0
0
0.00172617
-0.00171829
0
-0.0017226
0
0.00348107
0.00173716
0.00172626
-0.00345605
0.00175274
0
0
0.00175501
0
-0.00351265
-0.00177262
0
0
0.00356296
0.00178674
-0.00180754
0
0.00181893
0.00183826
0
0
-0.00186122
0.00183357
-0.00186224
0
0
1.03745e-05
0
-0.001954
0.00197708
-0.00198592
-9.72905e-06
0.00383626
0
-0.00195837
0
0
0.00396416
0.00398278
0
0.0040191
-0.0039236
-0.00395631
0
0
-0.0080795
0
0
0.00403809
0.00397193
0
0.00394392
0.004025
-0.00788184
0
0.0039384
0.003896
1.77218e-05
1.7734e-05
-0.0038156
0
0
0
0.00374951
0.00375837
0
-0.00368081
0.00364886
0
0
0
0.00347448
0.00351046
0
0
0.00344226
0
0.00334691
0
-0.00328776
0.00663235
0.0066584
0
0.00636217
0
-1.9661e-05
0
0
0.00623722
-0.00619045
0.00613909
0
0.0120707
0
-0.00591163
-0.00587126
0.00585176
0.00580915
0.00582399
0
0.00576369
0.00575437
0.00575061
0
0
0
0.00569675
-0.00564338
-0.00561267
-0.00557902
0.00557578
0
0
0
0
0.00546292
-9.34453e-06
0.0054122
0.00539816
0
-9.08048e-06
0.00532892
-0.00530593
-0.00527586
0
0
0
0
0.0102449
0
0.0100598
0
0
-0.00979801
0
0
0
0.00442728
0
0
-0.00154989
0
-0.00111816
-0.00101518
-0.000949219
0
0.000849828
0.000826686
0
-0.000821681
-0.000821708
0
0
0
0
0
0
0
0.000923288
0
-0.0019232
0
0.000989927
-0.000995529
0.000998203
-0.000997745
0.00100406
0
0
0.000992532
0.000986435
0.000982015
0
0
0
-0.000957981
0.00191972
-0.0019008
0
0
-1.10346e-05
0
0
0.00371787
0.0018696
0.00187129
0
-0.00186127
0
0.00186056
0.00186609
0
0
-0.00187683
0
0
0
0
-0.00189775
0.0019237
-0.00193266
0
-9.87212e-06
0
-0.0019386
0.00197811
0.00197522
0
0.00201233
-0.00204132
0
-9.73711e-06
-9.78065e-06
0
0
-0.00201833
0
0.00203023
0
0
-0.00408587
1.87321e-05
-0.00403545
0
0
0.00408794
0
0
0
0
0
-0.00807136
-0.00408601
0.00400248
0
-0.0039509
-0.00398767
0.00785346
0.00388744
0
-0.00379489
0
0
-0.00376419
-0.00377135
0
0.00738544
-0.00366206
0
0.00356886
0
0
0
0
-0.00349575
-1.21454e-05
-0.00333542
0
0
-0.00326664
0
-0.00330962
0
-0.00641887
0
-1.90067e-05
0
0
-0.00623602
1.57988e-05
-0.00624582
0
-0.0122599
0
0.00599546
0.00592888
-0.00586605
-1.02162e-05
0
0
-0.00578335
-0.0058072
-0.00582429
-0.00579342
0
0.0057473
0.00571514
-0.00561913
0.00561317
0.00557532
-0.00556583
0
0
0
-0.00547318
0.00544809
-0.00544003
-0.00541853
0
0
-0.00535459
-9.22993e-06
0.0105985
0.00526971
0
0
-0.00516854
0
-0.0102143
-0.00505906
0
0.00989667
0
-0.00972787
-0.00964476
-0.0094655
0
0
0.00281982
0
0.00169412
-0.00149541
0
0
-1.49955e-05
0
0
-0.00108825
0
0.00111383
0.00114131
-0.00115847
0
0
-0.00120079
0
0
0
1.43792e-06
0
0.00241154
0
0
0.00118446
-0.00116979
0.00116005
0
0
0
0
-0.00109539
-0.00108093
0
-0.00104798
0
0.00102871
-0.00101433
0.00201906
0
0.000991908
-0.00297149
0
-0.00195196
-1.00584e-05
-9.95384e-06
-0.00389206
0
0.00191623
0
0
0.00192181
0
0
0
0.00193571
0
-0.00193976
0
0.00196141
-0.00198106
9.20749e-06
0
-0.00198723
0
0.00201277
-0.00204923
-0.00202921
0
0
-0.00206886
0
-0.00205796
-0.00204353
0.00205675
0
0.00207501
0
-0.0041737
0
0
-0.0020711
0.00615379
0.00413985
0.00206279
0
0
-0.00412854
0
0
-0.0041169
-0.00407809
1.80864e-05
0
0
0.00406265
0.00400905
1.81847e-05
-1.80037e-05
0
0
1.74532e-05
0
0.00381373
0
-0.00377889
0
-1.5113e-05
-0.00368142
-0.00369741
-0.00360557
0
0
0.00354032
0
0.00350983
-1.21979e-05
0.00338438
0
0
0.00331174
-0.00329598
0.00330483
-0.00328544
0
0
-0.00949574
-0.00312267
0
0
0.00617725
0
0
1.29439e-05
0
-0.00607215
0.006003
0
-0.00589416
0
-0.0058047
0.00580612
0
0
1.05501e-05
0
-0.0115404
-0.0114632
0.00564891
0
0.00557251
0
0
0
0
0.00546492
-9.90969e-06
0.00541969
0
0
0
0.00532933
-0.00531044
-0.0105532
0
0.00520781
0.00517346
8.94762e-06
0.0051079
-0.00506422
0.00503522
0
-0.0147609
-0.0048913
0.00968904
0.0143582
0.00940467
0
0