# vtk DataFile Version 2.0
track0
ASCII
DATASET POLYDATA
POINTS 12075 float
-0.0205 0.001 1e-05
-0.02052 0.000999985 1e-05
-0.02054 0.000999974 1e-05
-0.02056 0.000999965 1e-05
-0.02058 0.000999959 1e-05
-0.0206 0.000999956 1e-05
-0.0205 0.00367778 1e-05
-0.02052 0.00367778 1e-05
-0.02054 0.00367777 1e-05
-0.02056 0.00367777 1e-05
-0.02058 0.00367777 1e-05
-0.0206 0.00367777 1e-05
-0.0205 0.00635556 1e-05
-0.02052 0.00635555 1e-05
-0.02054 0.00635555 1e-05
-0.02056 0.00635555 1e-05
-0.02058 0.00635555 1e-05
-0.0206 0.00635555 1e-05
-0.0205 0.00903333 1e-05
-0.02052 0.00903333 1e-05
-0.02054 0.00903333 1e-05
-0.02056 0.00903333 1e-05
-0.02058 0.00903333 1e-05
-0.0206 0.00903333 1e-05
-0.0205 0.0117111 1e-05
-0.02052 0.0117111 1e-05
-0.02054 0.0117111 1e-05
-0.02056 0.0117111 1e-05
-0.02058 0.0117111 1e-05
-0.0206 0.0117111 1e-05
-0.0205 0.0143889 1e-05
-0.02052 0.0143889 1e-05
-0.02054 0.0143889 1e-05
-0.02056 0.0143889 1e-05
-0.02058 0.0143889 1e-05
-0.0206 0.0143889 1e-05
-0.0205 0.0170667 1e-05
-0.02052 0.0170667 1e-05
-0.02054 0.0170667 1e-05
-0.02056 0.0170667 1e-05
-0.02058 0.0170667 1e-05
-0.0206 0.0170667 1e-05
-0.0205 0.0197444 1e-05
-0.02052 0.0197444 1e-05
-0.02054 0.0197444 1e-05
-0.02056 0.0197444 1e-05
-0.02058 0.0197444 1e-05
-0.0206 0.0197444 1e-05
-0.0205 0.0224222 1e-05
-0.02052 0.0224222 1e-05
-0.02054 0.0224222 1e-05
-0.02056 0.0224222 1e-05
-0.02058 0.0224222 1e-05
-0.0206 0.0224222 1e-05
-0.0205 0.0251 1e-05
-0.02052 0.0250998 1e-05
-0.02054 0.0250997 1e-05
-0.02056 0.0250995 1e-05
-0.02058 0.0250995 1e-05
-0.0206 0.0250994 1e-05
-0.0205 0.001 1e-05
-0.0202034 0.00100022 1e-05
-0.0199069 0.00100067 1e-05
-0.0196103 0.00100132 1e-05
-0.0193137 0.00100219 1e-05
-0.0190172 0.00100326 1e-05
-0.0187132 0.00100466 1e-05
-0.0184093 0.00100588 1e-05
-0.0181054 0.0010071 1e-05
-0.0178015 0.00100832 1e-05
-0.0174976 0.00100953 1e-05
-0.0172058 0.00101083 1e-05
-0.016914 0.00101193 1e-05
-0.0166222 0.00101303 1e-05
-0.0163305 0.00101413 1e-05
-0.0160387 0.00101523 1e-05
-0.0157586 0.00101636 1e-05
-0.0154784 0.00101745 1e-05
-0.0151983 0.00101856 1e-05
-0.0149182 0.00101972 1e-05
-0.0146381 0.0010209 1e-05
-0.0143747 0.00102209 1e-05
-0.0141113 0.00102327 1e-05
-0.0138479 0.00102449 1e-05
-0.0135845 0.00102574 1e-05
-0.0133621 0.00102682 1e-05
-0.0133484 0.00102689 1e-05
-0.0133346 0.00102695 1e-05
-0.0133209 0.00102702 1e-05
-0.0133072 0.00102709 1e-05
-0.0132934 0.00102716 1e-05
-0.0130353 0.00102845 1e-05
-0.0127771 0.00102975 1e-05
-0.0125189 0.00103107 1e-05
-0.0122607 0.0010324 1e-05
-0.0120025 0.00103376 1e-05
-0.0117547 0.00103506 1e-05
-0.0115068 0.00103638 1e-05
-0.0112589 0.0010377 1e-05
-0.0110111 0.00103903 1e-05
-0.0107632 0.00104036 1e-05
-0.0105252 0.00104163 1e-05
-0.0102873 0.00104291 1e-05
-0.0100493 0.00104419 1e-05
-0.00981133 0.00104547 1e-05
-0.00957337 0.00104675 1e-05
-0.00934491 0.00104797 1e-05
-0.00911645 0.00104919 1e-05
-0.00888799 0.00105041 1e-05
-0.00865954 0.00105163 1e-05
-0.00843108 0.00105284 1e-05
-0.00821175 0.001054 1e-05
-0.00799242 0.00105516 1e-05
-0.00777309 0.00105632 1e-05
-0.00755376 0.00105747 1e-05
-0.00733443 0.00105861 1e-05
-0.00712387 0.0010597 1e-05
-0.0069133 0.0010608 1e-05
-0.00670273 0.00106188 1e-05
-0.00649216 0.00106297 1e-05
-0.0062816 0.00106405 1e-05
-0.00607944 0.00106507 1e-05
-0.00587729 0.0010661 1e-05
-0.00567514 0.00106713 1e-05
-0.00547298 0.00106815 1e-05
-0.00527083 0.00106916 1e-05
-0.00507675 0.00107013 1e-05
-0.00488267 0.00107109 1e-05
-0.0046886 0.00107206 1e-05
-0.00449452 0.00107302 1e-05
-0.00430044 0.00107397 1e-05
-0.00411412 0.00107488 1e-05
-0.0039278 0.00107579 1e-05
-0.00374147 0.0010767 1e-05
-0.00355515 0.00107761 1e-05
-0.00336883 0.00107851 1e-05
-0.00318995 0.00107937 1e-05
-0.00301107 0.00108023 1e-05
-0.00283219 0.00108109 1e-05
-0.00265331 0.00108194 1e-05
-0.00247443 0.0010828 1e-05
-0.0023027 0.00108361 1e-05
-0.00213097 0.00108443 1e-05
-0.00195924 0.00108525 1e-05
-0.0017875 0.00108607 1e-05
-0.00161577 0.00108688 1e-05
-0.0014509 0.00108766 1e-05
-0.00128603 0.00108844 1e-05
-0.00112116 0.00108923 1e-05
-0.000956289 0.00109002 1e-05
-0.000791418 0.00109081 1e-05
-0.000633135 0.00109156 1e-05
-0.000474851 0.00109233 1e-05
-0.000316567 0.00109309 1e-05
-0.000158284 0.00109386 1e-05
0 0.00109462 1e-05
0.000105677 0.00109513 1e-05
0.000211355 0.00109564 1e-05
0.000317032 0.00109615 1e-05
0.00042271 0.00109666 1e-05
0.000528387 0.00109716 1e-05
0.000634886 0.00109767 1e-05
0.000741385 0.00109817 1e-05
0.000847885 0.00109866 1e-05
0.000954384 0.00109916 1e-05
0.00106088 0.00109965 1e-05
0.00116821 0.00110013 1e-05
0.00127554 0.00110062 1e-05
0.00138286 0.0011011 1e-05
0.00149019 0.00110156 1e-05
0.00159752 0.00110203 1e-05
0.00170568 0.00110248 1e-05
0.00181384 0.00110294 1e-05
0.001922 0.00110338 1e-05
0.00203016 0.00110382 1e-05
0.00213833 0.00110424 1e-05
0.00224733 0.00110466 1e-05
0.00235633 0.00110507 1e-05
0.00246533 0.00110548 1e-05
0.00257434 0.00110587 1e-05
0.00268334 0.00110626 1e-05
0.00279319 0.00110663 1e-05
0.00290304 0.00110701 1e-05
0.00301289 0.00110737 1e-05
0.00312274 0.00110773 1e-05
0.00323259 0.00110808 1e-05
0.00334329 0.00110841 1e-05
0.003454 0.00110875 1e-05
0.0035647 0.00110908 1e-05
0.0036754 0.0011094 1e-05
0.00378611 0.00110971 1e-05
0.00389767 0.00111001 1e-05
0.00400924 0.00111031 1e-05
0.0041208 0.0011106 1e-05
0.00423237 0.00111088 1e-05
0.00434393 0.00111116 1e-05
0.00445636 0.00111142 1e-05
0.00456879 0.00111168 1e-05
0.00468123 0.00111193 1e-05
0.00479366 0.00111218 1e-05
0.00490609 0.00111241 1e-05
0.0050194 0.00111264 1e-05
0.0051327 0.00111286 1e-05
0.00524601 0.00111308 1e-05
0.00535932 0.00111328 1e-05
0.00547262 0.00111348 1e-05
0.00558681 0.00111367 1e-05
0.005701 0.00111385 1e-05
0.00581518 0.00111403 1e-05
0.00592937 0.0011142 1e-05
0.00604356 0.00111436 1e-05
0.00615863 0.00111451 1e-05
0.00627371 0.00111466 1e-05
0.00638878 0.0011148 1e-05
0.00650386 0.00111493 1e-05
0.00661893 0.00111505 1e-05
0.0067349 0.00111517 1e-05
0.00685087 0.00111527 1e-05
0.00696684 0.00111538 1e-05
0.00708281 0.00111547 1e-05
0.00719878 0.00111555 1e-05
0.00731485 0.00111563 1e-05
0.00743092 0.0011157 1e-05
0.00754699 0.00111576 1e-05
0.00766306 0.00111581 1e-05
0.00777255 0.00111586 1e-05
0.00777467 0.00111586 1e-05
0.00777679 0.00111586 1e-05
0.0077789 0.00111586 1e-05
0.00778102 0.00111586 1e-05
0.00778313 0.00111586 1e-05
0.00790091 0.0011159 1e-05
0.00801869 0.00111593 1e-05
0.00813647 0.00111595 1e-05
0.00825425 0.00111596 1e-05
0.00837203 0.00111597 1e-05
0.00849073 0.00111596 1e-05
0.00860942 0.00111595 1e-05
0.00872812 0.00111593 1e-05
0.00884682 0.00111591 1e-05
0.00896551 0.00111587 1e-05
0.00908513 0.00111582 1e-05
0.00920475 0.00111577 1e-05
0.00932437 0.00111571 1e-05
0.00944398 0.00111564 1e-05
0.0095636 0.00111556 1e-05
0.00968415 0.00111547 1e-05
0.0098047 0.00111537 1e-05
0.00992525 0.00111527 1e-05
0.0100458 0.00111515 1e-05
0.0101663 0.00111503 1e-05
0.0102878 0.00111489 1e-05
0.0104093 0.00111475 1e-05
0.0105308 0.0011146 1e-05
0.0106523 0.00111444 1e-05
0.0107738 0.00111428 1e-05
0.0108962 0.00111409 1e-05
0.0110186 0.0011139 1e-05
0.0111411 0.00111371 1e-05
0.0112635 0.00111351 1e-05
0.0113859 0.00111329 1e-05
0.0115093 0.00111306 1e-05
0.0116327 0.00111282 1e-05
0.0117561 0.00111258 1e-05
0.0118795 0.00111233 1e-05
0.0120028 0.00111207 1e-05
0.0121272 0.00111179 1e-05
0.0122515 0.00111151 1e-05
0.0123759 0.00111122 1e-05
0.0125002 0.00111092 1e-05
0.0126245 0.00111061 1e-05
0.0127498 0.00111027 1e-05
0.0128752 0.00110994 1e-05
0.0130005 0.0011096 1e-05
0.0131258 0.00110925 1e-05
0.0132511 0.00110889 1e-05
0.0133774 0.00110851 1e-05
0.0135036 0.00110813 1e-05
0.0136299 0.00110774 1e-05
0.0137562 0.00110734 1e-05
0.0138825 0.00110693 1e-05
0.0140098 0.00110649 1e-05
0.014137 0.00110606 1e-05
0.0142643 0.00110561 1e-05
0.0143915 0.00110516 1e-05
0.0145188 0.0011047 1e-05
0.0146471 0.00110421 1e-05
0.0147753 0.00110372 1e-05
0.0149036 0.00110323 1e-05
0.0150318 0.00110272 1e-05
0.0151601 0.0011022 1e-05
0.0152893 0.00110167 1e-05
0.0154186 0.00110112 1e-05
0.0155478 0.00110057 1e-05
0.0156771 0.00110001 1e-05
0.0158063 0.00109944 1e-05
0.0159366 0.00109885 1e-05
0.0160668 0.00109825 1e-05
0.0161971 0.00109765 1e-05
0.0163274 0.00109703 1e-05
0.0164576 0.0010964 1e-05
0.0165889 0.00109576 1e-05
0.0167201 0.00109511 1e-05
0.0168514 0.00109445 1e-05
0.0169827 0.00109377 1e-05
0.0171139 0.00109309 1e-05
0.0172462 0.0010924 1e-05
0.0173785 0.00109169 1e-05
0.0175108 0.00109097 1e-05
0.0176431 0.00109024 1e-05
0.0177754 0.00108951 1e-05
0.0179087 0.00108876 1e-05
0.018042 0.001088 1e-05
0.0181753 0.00108722 1e-05
0.0183087 0.00108644 1e-05
0.018442 0.00108564 1e-05
0.0185763 0.00108485 1e-05
0.0187107 0.00108403 1e-05
0.018845 0.00108319 1e-05
0.0189794 0.00108235 1e-05
0.0191137 0.0010815 1e-05
0.0192491 0.00108065 1e-05
0.0193845 0.00107978 1e-05
0.0195199 0.00107888 1e-05
0.0196553 0.00107798 1e-05
0.0197907 0.00107708 1e-05
0.0199272 0.00107617 1e-05
0.0200636 0.00107524 1e-05
0.0202001 0.00107429 1e-05
0.0203365 0.00107333 1e-05
0.020473 0.00107237 1e-05
0.0206105 0.00107141 1e-05
0.020748 0.00107042 1e-05
0.0208855 0.00106941 1e-05
0.021023 0.00106839 1e-05
0.0211606 0.00106738 1e-05
0.0212991 0.00106636 1e-05
0.0214377 0.00106532 1e-05
0.0215763 0.00106426 1e-05
0.0217149 0.00106318 1e-05
0.0218535 0.00106211 1e-05
0.0219931 0.00106103 1e-05
0.0221328 0.00105994 1e-05
0.0222724 0.00105881 1e-05
0.0224121 0.00105767 1e-05
0.0225517 0.00105654 1e-05
0.0226925 0.00105542 1e-05
0.0228332 0.00105426 1e-05
0.022974 0.00105307 1e-05
0.0231147 0.00105188 1e-05
0.0232555 0.00105069 1e-05
0.0233973 0.0010495 1e-05
0.0235391 0.00104829 1e-05
0.023681 0.00104704 1e-05
0.0238228 0.00104579 1e-05
0.0239647 0.00104454 1e-05
0.0241076 0.0010433 1e-05
0.0242505 0.00104202 1e-05
0.0243935 0.00104072 1e-05
0.0245364 0.00103941 1e-05
0.0246794 0.0010381 1e-05
0.0248234 0.00103679 1e-05
0.0249675 0.00103546 1e-05
0.0251115 0.00103409 1e-05
0.0252556 0.00103272 1e-05
[...]
POINT_DATA 12075
 FIELD attributes 2
p 1 12075 float
-5.65467 -5.65135 -5.64804 -5.64472 -5.64141 -5.6381
-5.80702 -5.80699 -5.80697 -5.80695 -5.80693 -5.80691
-5.98112 -5.98099 -5.98087 -5.98075 -5.98062 -5.98052
-6.07443 -6.07438 -6.07432 -6.07427 -6.07422 -6.07416
-6.11954 -6.11943 -6.11931 -6.1192 -6.11909 -6.11898
-6.12614 -6.12598 -6.12582 -6.12566 -6.12549 -6.12533
-6.09928 -6.09921 -6.09914 -6.09907 -6.099 -6.09893
-6.02979 -6.02975 -6.02971 -6.02967 -6.02963 -6.02959
-5.90855 -5.90856 -5.90856 -5.90857 -5.90858 -5.90858
-3.69597 -3.7153 -3.7345 -3.75357 -3.77251 -3.79131
-5.65467 -5.65396 -5.65034 -5.64664 -5.64287 -5.63449 -5.64833 -5.6633 -5.67826 -5.69323 -5.71765 -5.7394 -5.76933 -5.79925 -5.82918 -5.86191 -5.87755 -5.89924 -5.92093 -5.94262 -5.96592 -5.98479 -6.00566 -6.02654 -6.04741 -6.06505 -6.06614 -6.06722 -6.06831 -6.06939 -6.07047 -6.09211 -6.11375 -6.13538 -6.15702 -6.17839 -6.19712 -6.21565 -6.23419 -6.25273 -6.27069 -6.28628 -6.30158 -6.31688 -6.33218 -6.34693 -6.36064 -6.37411 -6.38758 -6.40105 -6.41406 -6.4267 -6.43906 -6.45143 -6.4638 -6.47574 -6.48743 -6.49882 -6.51021 -6.5216 -6.53255 -6.54339 -6.55393 -6.56447 -6.57501 -6.58519 -6.59534 -6.60519 -6.61505 -6.6249 -6.63443 -6.64401 -6.65336 -6.6627 -6.67205 -6.68119 -6.69036 -6.69919 -6.70802 -6.71684 -6.72547 -6.73436 -6.74333 -6.75231 -6.76128 -6.77053 -6.78004 -6.78917 -6.79831 -6.80744 -6.81659 -6.82665 -6.83804 -6.84942 -6.8608 -6.8729 -6.88435 -6.89735 -6.91035 -6.92335 -6.93597 -6.94745 -6.95866 -6.96987 -6.98107 -6.99114 -6.99954 -7.00862 -7.01769 -7.02677 -7.03636 -7.04494 -7.05372 -7.0625 -7.07129 -7.08011 -7.0886 -7.09599 -7.10337 -7.11076 -7.11718 -7.12427 -7.13001 -7.13574 -7.14148 -7.14606 -7.15197 -7.15677 -7.16158 -7.16639 -7.17019 -7.17519 -7.17926 -7.18334 -7.18741 -7.19068 -7.19468 -7.19794 -7.2012 -7.20446 -7.20714 -7.21018 -7.21267 -7.21517 -7.21766 -7.2198 -7.22218 -7.2242 -7.22622 -7.22824 -7.23007 -7.23215 -7.234 -7.23585 -7.2377 -7.23945 -7.24136 -7.24313 -7.2449 -7.24667 -7.2484 -7.25015 -7.25184 -7.25352 -7.25521 -7.2568 -7.25683 -7.25686 -7.25689 -7.25692 -7.25696 -7.25862 -7.26029 -7.26196 -7.26363 -7.26546 -7.26696 -7.26864 -7.27033 -7.27201 -7.2741 -7.27541 -7.27717 -7.27893 -7.28069 -7.28316 -7.2843 -7.28619 -7.28808 -7.28997 -7.29293 -7.29389 -7.29591 -7.29793 -7.29996 -7.3034 -7.30415 -7.30627 -7.30839 -7.31052 -7.3144 -7.31497 -7.3172 -7.31943 -7.32166 -7.32597 -7.32641 -7.32877 -7.33113 -7.33349 -7.3382 -7.33856 -7.34105 -7.34354 -7.34604 -7.35109 -7.35141 -7.35403 -7.35665 -7.35928 -7.36462 -7.36494 -7.36769 -7.37044 -7.37328 -7.37876 -7.37934 -7.38204 -7.38492 -7.38815 -7.39354 -7.39446 -7.39708 -7.40009 -7.40367 -7.40895 -7.41023 -7.4128 -7.41594 -7.41981 -7.42498 -7.42661 -7.42917 -7.43244 -7.43656 -7.44162 -7.44357 -7.44617 -7.44956 -7.45388 -7.45883 -7.4611 -7.46378 -7.46729 -7.47176 -7.47662 -7.47918 -7.48195 -7.48557 -7.49016 -7.49495 -7.49778 -7.50067 -7.50441 -7.50909 -7.51381 -7.51688 -7.51996 -7.52382 -7.5285 -7.53317 -7.53648 -7.53979 -7.54376 -7.5484 -7.55305 -7.55658 -7.56012 -7.56419 -7.56879 -7.5734 -7.57714 -7.58089 -7.58504 -7.58959 -7.59414 -7.59806 -7.60197 -7.60619 -7.6107 -7.61522 -7.61926 -7.62331 -7.62758 -7.63207 -7.63657 -7.64071 -7.64485 -7.64917 -7.65367 -7.65817 -7.66238 -7.6666 -7.67098 -7.67548 -7.68 -7.68427 -7.68856 -7.69298 -7.69749 -7.70203 -7.70634 -7.7107 -7.71515 -7.71967 -7.72423 -7.72857 -7.73297 -7.73745 -7.74197 -7.74654 -7.7509 -7.75533 -7.75982 -7.76434 -7.76892 -7.77329 -7.77775 -7.78224 -7.78675 -7.79133 -7.79568 -7.80015 -7.80464 -7.80912 -7.81369 -7.81804 -7.8225 -7.82697 -7.83144 -7.83597 -7.8403 -7.84474 -7.84917 -7.85361 -7.8581 -7.86241 -7.8668 -7.8712 -7.87559 -7.88002 -7.8843 -7.88864 -7.89298 -7.89732 -7.90168 -7.90591 -7.91018 -7.91445 -7.91872 -7.92299 -7.92621 -7.92945 -7.93268 -7.93592 -7.93904 -7.94001 -7.94098 -7.94195 -7.94291 -7.94388 -7.94797 -7.95205 -7.95614 -7.96022 -7.96432 -7.96829 -7.97227 -7.97624 -7.98021 -7.9842 -7.98806 -7.9919 -7.99575 -7.9996 -8.00346 -8.00719 -8.01089 -8.01459 -8.01829 -8.02199 -8.02557 -8.02909 -8.03261 -8.03613 -8.03964 -8.04306 -8.04638 -8.0497 -8.05302 -8.05631 -8.05954 -8.06268 -8.06579 -8.06888 -8.07195 -8.07497 -8.07792 -8.08079 -8.08364 -8.08645 -8.08924 -8.09197 -8.09459 -8.09714 -8.09967 -8.10219 -8.1047 -8.10703 -8.10926 -8.11148 -8.11371 -8.11594 -8.11797 -8.11985 -8.12174 -8.12364 -8.12555 -8.12726 -8.12878 -8.1303 -8.13185 -8.13341 -8.13476 -8.13589 -8.13701 -8.13818 -8.13936 -8.14034 -8.14104 -8.14174 -8.14251 -8.14326 -8.14382 -8.14411 -8.14435 -8.14469 -8.14495 -8.14504 -8.14494 -8.14471 -8.14457 -8.14429 -8.14389 -8.14337 -8.14262 -8.14198 -8.14111 -8.14018 -8.13923 -8.13793 -8.13674 -8.13524 -8.13375 -8.13226 -8.13045 -8.12859 -8.1265 -8.1244 -8.12231 -8.12001 -8.11744 -8.1147 -8.11197 -8.10924 -8.10643 -8.10441 -8.10233 -8.10025 -8.09817 -8.09618 -8.09485 -8.09353 -8.09221 -8.09089 -8.08951 -8.0855 -8.08143 -8.07737 -8.0733 -8.06905 -8.06447 -8.05964 -8.05483 -8.05001 -8.04483 -8.03967 -8.03406 -8.02845 -8.02284 -8.01668 -8.01083 -8.00448 -7.99805 -7.99142 -7.9844 -7.97771 -7.97072 -7.96341 -7.9557 -7.94777 -7.94019 -7.93255 -7.92433 -7.91547 -7.90659 -7.89808 -7.88957 -7.88037 -7.8705 -7.86064 -7.85115 -7.84167 -7.8315 -7.8206 -7.80971 -7.79921 -7.78871 -7.77746 -7.76556 -7.7536 -7.74204 -7.7302 -7.71786 -7.70517 -7.6921 -7.67945 -7.66619 -7.65271 -7.63922 -7.625 -7.61111 -7.59645 -7.58181 -7.56717 -7.55209 -7.53666 -7.5208 -7.50494 -7.48909 -7.47317 -7.46992 -7.4666 -7.46328 -7.45996 -7.45669 -7.44302 -7.42936 -7.4157 -7.40204 -7.38812 -7.37017 -7.35195 -7.33373 -7.31552 -7.29666 -7.27779 -7.25826 -7.23873 -7.21899 -7.19862 -7.17844 -7.15794 -7.13708 -7.11557 -7.09382 -7.07227 -7.05074 -7.0284 -7.00525 -6.9821 -6.95916 -6.93623 -6.91247 -6.8879 -6.86332 -6.83897 -6.8144 -6.78909 -6.76338 -6.73736 -6.71156 -6.68502 -6.65825 -6.63149 -6.60408 -6.57652 -6.54827 -6.52002 -6.49178 -6.4634 -6.45561 -6.44766 -6.43972 -6.43177 -6.42399 -6.40224 -6.3805 -6.35877 -6.33705 -6.31502 -6.28414 -6.25302 -6.22192 -6.19082 -6.15898 -6.12684 -6.09435 -6.06174 -6.02872 -5.99534 -5.96169 -5.92805 -5.89385 -5.85895 -5.82406 -5.7889 -5.75375 -5.71794 -5.68155 -5.64516 -5.60849 -5.57155 -5.53413 -5.49656 -5.45868 -5.42052 -5.38161 -5.34271 -5.30381 -5.26471 -5.24358 -5.22219 -5.20081 -5.17942 -5.15882 -5.13975 -5.12069 -5.10163 -5.08257 -5.06326 -5.02178 -4.98013 -4.93849 -4.89687 -4.85446 -4.81183 -4.76893 -4.72592 -4.68241 -4.63862 -4.59462 -4.55063 -4.50614 -4.46106 -4.41596 -4.37065 -4.32532 -4.27932 -4.2331 -4.18677 -4.1402 -4.09314 -4.04593 -3.99874 -3.95133 -3.91997 -3.8883 -3.85664 -3.82499 -3.79465 -3.77773 -3.76081 -3.7439 -3.72699 -3.7099 -3.66065 -3.61131 -3.562 -3.51269 -3.46276 -3.41262 -3.36239 -3.31209 -3.26138 -3.21052 -3.15944 -3.10837 -3.05699 -3.00533 -2.95364 -2.9017 -2.84963 -2.79732 -2.74499 -2.69257 -2.63982 -2.58681 -2.53381 -2.48083 -2.42781 -2.42685 -2.42588 -2.42491 -2.42395 -2.42298 -2.37035 -2.31773 -2.26512 -2.21253 -2.15966 -2.10555 -2.05148 -1.99742 -1.94323 -1.88892 -1.83438 -1.77985 -1.72531 -1.67074 -1.61614 -1.56128 -1.50641 -1.4515 -1.39664 -1.34185 -1.29323 -1.24462 -1.19602 -1.14743 -1.10085 -1.094 -1.08714 -1.08029 -1.07343 -1.06657 -1.01134 -0.956153 -0.900978 -0.845815 -0.79064 -0.735247 -0.679987 -0.624875 -0.56985 -0.514805 -0.459521 -0.40425 -0.349133 -0.294349 -0.239534 -0.18446 -0.129552 -0.0747221 -0.0199018 0.034735 0.0566638 0.0784833 0.100301 0.122118 0.143627 0.176472 0.209314 0.242153 0.274989 0.307726 0.36232 0.416575 0.470823 0.524944 0.57896 0.633142 0.687314 0.741089 0.79454 0.848018 0.901674 0.955211 1.00853 1.06179 1.11468 1.15332 1.1917 1.23009 1.26847 1.30617 1.32071 1.33526 1.3498 1.36435 1.37882 1.43135 1.48368 1.536 1.58826 1.64026 1.69237 1.74444 1.79597 1.84718 1.8984 1.94974 2.00103 2.05195 2.10259 2.15297 2.20147 2.24954 2.29761 2.34568 2.3932 2.39533 2.39746 2.39959 2.40172 2.40384 2.4534 2.50293 2.55245 2.60198 2.65112 2.70031 2.74927 2.79791 2.84615 2.89438 2.94268 2.99097 3.03887 3.08624 3.13354 3.18091 3.22791 3.27484 3.32176 3.36852 3.37727 3.38593 3.3946 3.40326 3.41192 3.4495 3.48709 3.52467 3.56225 3.59952 3.64544 3.69093 3.73629 3.78136 3.82629 3.87129 3.91628 3.96084 4.00484 4.04883 4.09289 4.13671 4.18035 4.224 4.2672 4.28884 4.31028 4.33173 4.35317 4.37474 4.39614 4.41755 4.43895 4.46036 4.48158 4.5241 4.56622 4.60835 4.65034 4.69207 4.73387 4.77568 4.81693 4.85783 4.89872 4.93969 4.9806 5.02122 5.06163 5.10172 5.14025 5.17848 5.21672 5.25495 5.29381 5.29531 5.29681 5.29831 5.2998 5.30129 5.34065 5.37999 5.41933 5.45867 5.4977 5.53683 5.5757 5.61436 5.65278 5.69113 5.72962 5.76811 5.80633 5.8441 5.88186 5.91977 5.95754 5.99522 6.03289 6.07022 6.09175 6.11319 6.13462 6.15606 6.17767 6.19346 6.20925 6.22504 6.24083 6.25654 6.29369 6.33062 6.36755 6.40444 6.4412 6.47811 6.51502 6.5516 6.58807 6.62454 6.66116 6.69777 6.73432 6.77072 6.80698 6.84338 6.87977 6.91616 6.95255 6.98892 6.99075 6.99259 6.99443 6.99627 6.99811 7.03265 7.06719 7.10173 7.13628 7.17084 7.2074 7.24386 7.28024 7.3167 7.35318 7.3898 7.42642 7.46314 7.49978 7.53642 7.57319 7.61012 7.6471 7.68409 7.72104 7.73445 7.74795 7.76145 7.77495 7.78837 7.81217 7.83598 7.85979 7.8836 7.90758 7.94526 7.98294 8.02062 8.0585 8.09653 8.13466 8.17279 8.21117 8.24974 8.28834 8.32701 8.36596 8.4051 8.44423 8.48346 8.49856 8.51386 8.52916 8.54446 8.55959 8.58409 8.60859 8.63308 8.65759 8.68241 8.72272 8.76318 8.80365 8.84451 8.88557 8.92667 8.96776 9.00933 9.05124 9.09318 9.13513 9.17762 9.22022 9.26281 9.30547 9.30837 9.3113 9.31424 9.31718 9.32011 9.36052 9.40094 9.44135 9.48184 9.5229 9.56691 9.61095 9.65533 9.70028 9.74524 9.79017 9.8353 9.88088 9.92648 9.97234 9.99394 10.0158 10.0377 10.0596 10.0814 10.1059 10.1303 10.1548 10.1794 10.2042 10.251 10.2981 10.3451 10.3927 10.4403 10.4879 10.5354 10.5835 10.6317 10.68 10.7155 10.7512 10.787 10.8228 10.8594 10.872 10.8846 10.8972 10.9098 10.9225 10.9713 11.0202 11.0691 11.1182 11.1675 11.2166 11.2658 11.3147 11.3634 11.412 11.4604 11.51 11.56 11.6099 11.6599 11.667 11.6732 11.6792 11.6853 11.6915 11.731 11.7705 11.8099 11.849 11.8823 11.9207 11.9631 12.0099 12.0704 12.1319 12.193 12.2512 12.2883 12.3246 12.3512 12.3601 12.3704 12.3817 12.393 12.4049 12.4245 12.444 12.4636 12.4849 12.5089 12.5452 12.5814 12.6175 12.6535 12.6894 12.7249 12.7581 12.7899 12.8217 12.853 12.8543 12.8556 12.8568 12.858 12.8592 12.886 12.9127 12.9392 12.9649 12.9886 13.012 13.0353 13.0564 13.0754 13.0942 13.1114 13.1262 13.1398 13.1533 13.1659 13.1675 13.1686 13.1695 13.1704 13.1714 13.1778 13.1841 13.1903 13.1961 13.1994 13.2002 13.1997 13.1975 13.1912 13.1845 13.1745 13.1643 13.1497 13.1325 13.1144 13.0928 13.0663 13.039 13.0116 12.9827 12.9724 12.9607 12.9489 12.9372 12.9243 12.8973 12.8702 12.843 12.8157 12.7854 12.7362 12.6833 12.6301 12.5747 12.5151 12.4506 12.3855 12.3157 12.2394 12.1631 12.0816 12 11.912 11.8179 11.7236 11.6239 11.5217 11.4145 11.3048 11.192 11.0732 10.9469 10.8196 10.6922 10.5597 10.4164 10.2685 10.1206 9.97267 9.82352 9.76551 9.70563 9.64575 9.58587 9.51721 9.40728 9.29731 9.1873 9.07725 8.96389 8.77151 8.57788 8.38418 8.19042 7.99352 7.78213 7.55277 7.32328 7.09365 6.83755 6.57215 6.32325 6.07676 5.83593 5.60959 5.37542 5.09044 4.76229 4.37332 3.94192 3.49494 3.08589 2.8063 2.66795 2.55955 2.44695 2.3346 1.81771 0.908181 0