# vtk DataFile Version 2.0
track0
ASCII
DATASET POLYDATA
POINTS 12075 float
-0.0205 0.001 1e-05
-0.02052 0.000999985 1e-05
-0.02054 0.000999974 1e-05
-0.02056 0.000999965 1e-05
-0.02058 0.000999959 1e-05
-0.0206 0.000999956 1e-05
-0.0205 0.00367778 1e-05
-0.02052 0.00367778 1e-05
-0.02054 0.00367777 1e-05
-0.02056 0.00367777 1e-05
-0.02058 0.00367777 1e-05
-0.0206 0.00367777 1e-05
-0.0205 0.00635556 1e-05
-0.02052 0.00635555 1e-05
-0.02054 0.00635555 1e-05
-0.02056 0.00635555 1e-05
-0.02058 0.00635555 1e-05
-0.0206 0.00635555 1e-05
-0.0205 0.00903333 1e-05
-0.02052 0.00903333 1e-05
-0.02054 0.00903333 1e-05
-0.02056 0.00903333 1e-05
-0.02058 0.00903333 1e-05
-0.0206 0.00903333 1e-05
-0.0205 0.0117111 1e-05
-0.02052 0.0117111 1e-05
-0.02054 0.0117111 1e-05
-0.02056 0.0117111 1e-05
-0.02058 0.0117111 1e-05
-0.0206 0.0117111 1e-05
-0.0205 0.0143889 1e-05
-0.02052 0.0143889 1e-05
-0.02054 0.0143889 1e-05
-0.02056 0.0143889 1e-05
-0.02058 0.0143889 1e-05
-0.0206 0.0143889 1e-05
-0.0205 0.0170667 1e-05
-0.02052 0.0170667 1e-05
-0.02054 0.0170667 1e-05
-0.02056 0.0170667 1e-05
-0.02058 0.0170667 1e-05
-0.0206 0.0170667 1e-05
-0.0205 0.0197444 1e-05
-0.02052 0.0197444 1e-05
-0.02054 0.0197444 1e-05
-0.02056 0.0197444 1e-05
-0.02058 0.0197444 1e-05
-0.0206 0.0197444 1e-05
-0.0205 0.0224222 1e-05
-0.02052 0.0224222 1e-05
-0.02054 0.0224222 1e-05
-0.02056 0.0224222 1e-05
-0.02058 0.0224222 1e-05
-0.0206 0.0224222 1e-05
-0.0205 0.0251 1e-05
-0.02052 0.0250998 1e-05
-0.02054 0.0250997 1e-05
-0.02056 0.0250995 1e-05
-0.02058 0.0250995 1e-05
-0.0206 0.0250994 1e-05
-0.0205 0.001 1e-05
-0.0202034 0.00100022 1e-05
-0.0199069 0.00100067 1e-05
-0.0196103 0.00100132 1e-05
-0.0193137 0.00100219 1e-05
-0.0190172 0.00100326 1e-05
-0.0187132 0.00100466 1e-05
-0.0184093 0.00100588 1e-05
-0.0181054 0.0010071 1e-05
-0.0178015 0.00100832 1e-05
-0.0174976 0.00100953 1e-05
-0.0172058 0.00101083 1e-05
-0.016914 0.00101193 1e-05
-0.0166222 0.00101303 1e-05
-0.0163305 0.00101413 1e-05
-0.0160387 0.00101523 1e-05
-0.0157586 0.00101636 1e-05
-0.0154784 0.00101745 1e-05
-0.0151983 0.00101856 1e-05
-0.0149182 0.00101972 1e-05
-0.0146381 0.0010209 1e-05
-0.0143747 0.00102209 1e-05
-0.0141113 0.00102327 1e-05
-0.0138479 0.00102449 1e-05
-0.0135845 0.00102574 1e-05
-0.0133621 0.00102682 1e-05
-0.0133484 0.00102689 1e-05
-0.0133346 0.00102695 1e-05
-0.0133209 0.00102702 1e-05
-0.0133072 0.00102709 1e-05
-0.0132934 0.00102716 1e-05
-0.0130353 0.00102845 1e-05
-0.0127771 0.00102975 1e-05
-0.0125189 0.00103107 1e-05
-0.0122607 0.0010324 1e-05
-0.0120025 0.00103376 1e-05
-0.0117547 0.00103506 1e-05
-0.0115068 0.00103638 1e-05
-0.0112589 0.0010377 1e-05
-0.0110111 0.00103903 1e-05
-0.0107632 0.00104036 1e-05
-0.0105252 0.00104163 1e-05
-0.0102873 0.00104291 1e-05
-0.0100493 0.00104419 1e-05
-0.00981133 0.00104547 1e-05
-0.00957337 0.00104675 1e-05
-0.00934491 0.00104797 1e-05
-0.00911645 0.00104919 1e-05
-0.00888799 0.00105041 1e-05
-0.00865954 0.00105163 1e-05
-0.00843108 0.00105284 1e-05
-0.00821175 0.001054 1e-05
-0.00799242 0.00105516 1e-05
-0.00777309 0.00105632 1e-05
-0.00755376 0.00105747 1e-05
-0.00733443 0.00105861 1e-05
-0.00712387 0.0010597 1e-05
-0.0069133 0.0010608 1e-05
-0.00670273 0.00106188 1e-05
-0.00649216 0.00106297 1e-05
-0.0062816 0.00106405 1e-05
-0.00607944 0.00106507 1e-05
-0.00587729 0.0010661 1e-05
-0.00567514 0.00106713 1e-05
-0.00547298 0.00106815 1e-05
-0.00527083 0.00106916 1e-05
-0.00507675 0.00107013 1e-05
-0.00488267 0.00107109 1e-05
-0.0046886 0.00107206 1e-05
-0.00449452 0.00107302 1e-05
-0.00430044 0.00107397 1e-05
-0.00411412 0.00107488 1e-05
-0.0039278 0.00107579 1e-05
-0.00374147 0.0010767 1e-05
-0.00355515 0.00107761 1e-05
-0.00336883 0.00107851 1e-05
-0.00318995 0.00107937 1e-05
-0.00301107 0.00108023 1e-05
-0.00283219 0.00108109 1e-05
-0.00265331 0.00108194 1e-05
-0.00247443 0.0010828 1e-05
-0.0023027 0.00108361 1e-05
-0.00213097 0.00108443 1e-05
-0.00195924 0.00108525 1e-05
-0.0017875 0.00108607 1e-05
-0.00161577 0.00108688 1e-05
-0.0014509 0.00108766 1e-05
-0.00128603 0.00108844 1e-05
-0.00112116 0.00108923 1e-05
-0.000956289 0.00109002 1e-05
-0.000791418 0.00109081 1e-05
-0.000633135 0.00109156 1e-05
-0.000474851 0.00109233 1e-05
-0.000316567 0.00109309 1e-05
-0.000158284 0.00109386 1e-05
0 0.00109462 1e-05
0.000105677 0.00109513 1e-05
0.000211355 0.00109564 1e-05
0.000317032 0.00109615 1e-05
0.00042271 0.00109666 1e-05
0.000528387 0.00109716 1e-05
0.000634886 0.00109767 1e-05
0.000741385 0.00109817 1e-05
0.000847885 0.00109866 1e-05
0.000954384 0.00109916 1e-05
0.00106088 0.00109965 1e-05
0.00116821 0.00110013 1e-05
0.00127554 0.00110062 1e-05
0.00138286 0.0011011 1e-05
0.00149019 0.00110156 1e-05
0.00159752 0.00110203 1e-05
0.00170568 0.00110248 1e-05
0.00181384 0.00110294 1e-05
0.001922 0.00110338 1e-05
0.00203016 0.00110382 1e-05
0.00213833 0.00110424 1e-05
0.00224733 0.00110466 1e-05
0.00235633 0.00110507 1e-05
0.00246533 0.00110548 1e-05
0.00257434 0.00110587 1e-05
0.00268334 0.00110626 1e-05
0.00279319 0.00110663 1e-05
0.00290304 0.00110701 1e-05
0.00301289 0.00110737 1e-05
0.00312274 0.00110773 1e-05
0.00323259 0.00110808 1e-05
0.00334329 0.00110841 1e-05
0.003454 0.00110875 1e-05
0.0035647 0.00110908 1e-05
0.0036754 0.0011094 1e-05
0.00378611 0.00110971 1e-05
0.00389767 0.00111001 1e-05
0.00400924 0.00111031 1e-05
0.0041208 0.0011106 1e-05
0.00423237 0.00111088 1e-05
0.00434393 0.00111116 1e-05
0.00445636 0.00111142 1e-05
0.00456879 0.00111168 1e-05
0.00468123 0.00111193 1e-05
0.00479366 0.00111218 1e-05
0.00490609 0.00111241 1e-05
0.0050194 0.00111264 1e-05
0.0051327 0.00111286 1e-05
0.00524601 0.00111308 1e-05
0.00535932 0.00111328 1e-05
0.00547262 0.00111348 1e-05
0.00558681 0.00111367 1e-05
0.005701 0.00111385 1e-05
0.00581518 0.00111403 1e-05
0.00592937 0.0011142 1e-05
0.00604356 0.00111436 1e-05
0.00615863 0.00111451 1e-05
0.00627371 0.00111466 1e-05
0.00638878 0.0011148 1e-05
0.00650386 0.00111493 1e-05
0.00661893 0.00111505 1e-05
0.0067349 0.00111517 1e-05
0.00685087 0.00111527 1e-05
0.00696684 0.00111538 1e-05
0.00708281 0.00111547 1e-05
0.00719878 0.00111555 1e-05
0.00731485 0.00111563 1e-05
0.00743092 0.0011157 1e-05
0.00754699 0.00111576 1e-05
0.00766306 0.00111581 1e-05
0.00777255 0.00111586 1e-05
0.00777467 0.00111586 1e-05
0.00777679 0.00111586 1e-05
0.0077789 0.00111586 1e-05
0.00778102 0.00111586 1e-05
0.00778313 0.00111586 1e-05
0.00790091 0.0011159 1e-05
0.00801869 0.00111593 1e-05
0.00813647 0.00111595 1e-05
0.00825425 0.00111596 1e-05
0.00837203 0.00111597 1e-05
0.00849073 0.00111596 1e-05
0.00860942 0.00111595 1e-05
0.00872812 0.00111593 1e-05
0.00884682 0.00111591 1e-05
0.00896551 0.00111587 1e-05
0.00908513 0.00111582 1e-05
0.00920475 0.00111577 1e-05
0.00932437 0.00111571 1e-05
0.00944398 0.00111564 1e-05
0.0095636 0.00111556 1e-05
0.00968415 0.00111547 1e-05
0.0098047 0.00111537 1e-05
0.00992525 0.00111527 1e-05
0.0100458 0.00111515 1e-05
0.0101663 0.00111503 1e-05
0.0102878 0.00111489 1e-05
0.0104093 0.00111475 1e-05
0.0105308 0.0011146 1e-05
0.0106523 0.00111444 1e-05
0.0107738 0.00111428 1e-05
0.0108962 0.00111409 1e-05
0.0110186 0.0011139 1e-05
0.0111411 0.00111371 1e-05
0.0112635 0.00111351 1e-05
0.0113859 0.00111329 1e-05
0.0115093 0.00111306 1e-05
0.0116327 0.00111282 1e-05
0.0117561 0.00111258 1e-05
0.0118795 0.00111233 1e-05
0.0120028 0.00111207 1e-05
0.0121272 0.00111179 1e-05
0.0122515 0.00111151 1e-05
0.0123759 0.00111122 1e-05
0.0125002 0.00111092 1e-05
0.0126245 0.00111061 1e-05
0.0127498 0.00111027 1e-05
0.0128752 0.00110994 1e-05
0.0130005 0.0011096 1e-05
0.0131258 0.00110925 1e-05
0.0132511 0.00110889 1e-05
0.0133774 0.00110851 1e-05
0.0135036 0.00110813 1e-05
0.0136299 0.00110774 1e-05
0.0137562 0.00110734 1e-05
0.0138825 0.00110693 1e-05
0.0140098 0.00110649 1e-05
0.014137 0.00110606 1e-05
0.0142643 0.00110561 1e-05
0.0143915 0.00110516 1e-05
0.0145188 0.0011047 1e-05
0.0146471 0.00110421 1e-05
0.0147753 0.00110372 1e-05
0.0149036 0.00110323 1e-05
0.0150318 0.00110272 1e-05
0.0151601 0.0011022 1e-05
0.0152893 0.00110167 1e-05
0.0154186 0.00110112 1e-05
0.0155478 0.00110057 1e-05
0.0156771 0.00110001 1e-05
0.0158063 0.00109944 1e-05
0.0159366 0.00109885 1e-05
0.0160668 0.00109825 1e-05
0.0161971 0.00109765 1e-05
0.0163274 0.00109703 1e-05
0.0164576 0.0010964 1e-05
0.0165889 0.00109576 1e-05
0.0167201 0.00109511 1e-05
0.0168514 0.00109445 1e-05
0.0169827 0.00109377 1e-05
0.0171139 0.00109309 1e-05
0.0172462 0.0010924 1e-05
0.0173785 0.00109169 1e-05
0.0175108 0.00109097 1e-05
0.0176431 0.00109024 1e-05
0.0177754 0.00108951 1e-05
0.0179087 0.00108876 1e-05
0.018042 0.001088 1e-05
0.0181753 0.00108722 1e-05
0.0183087 0.00108644 1e-05
0.018442 0.00108564 1e-05
0.0185763 0.00108485 1e-05
0.0187107 0.00108403 1e-05
0.018845 0.00108319 1e-05
0.0189794 0.00108235 1e-05
0.0191137 0.0010815 1e-05
0.0192491 0.00108065 1e-05
0.0193845 0.00107978 1e-05
0.0195199 0.00107888 1e-05
0.0196553 0.00107798 1e-05
0.0197907 0.00107708 1e-05
0.0199272 0.00107617 1e-05
0.0200636 0.00107524 1e-05
0.0202001 0.00107429 1e-05
0.0203365 0.00107333 1e-05
0.020473 0.00107237 1e-05
0.0206105 0.00107141 1e-05
0.020748 0.00107042 1e-05
0.0208855 0.00106941 1e-05
0.021023 0.00106839 1e-05
0.0211606 0.00106738 1e-05
0.0212991 0.00106636 1e-05
0.0214377 0.00106532 1e-05
0.0215763 0.00106426 1e-05
0.0217149 0.00106318 1e-05
0.0218535 0.00106211 1e-05
0.0219931 0.00106103 1e-05
0.0221328 0.00105994 1e-05
0.0222724 0.00105881 1e-05
0.0224121 0.00105767 1e-05
0.0225517 0.00105654 1e-05
0.0226925 0.00105542 1e-05
0.0228332 0.00105426 1e-05
0.022974 0.00105307 1e-05
0.0231147 0.00105188 1e-05
0.0232555 0.00105069 1e-05
0.0233973 0.0010495 1e-05
0.0235391 0.00104829 1e-05
0.023681 0.00104704 1e-05
0.0238228 0.00104579 1e-05
0.0239647 0.00104454 1e-05
0.0241076 0.0010433 1e-05
0.0242505 0.00104202 1e-05
0.0243935 0.00104072 1e-05
0.0245364 0.00103941 1e-05
0.0246794 0.0010381 1e-05
0.0248234 0.00103679 1e-05
0.0249675 0.00103546 1e-05
0.0251115 0.00103409 1e-05
0.0252556 0.00103272 1e-05
[...]
POINT_DATA 12075
 FIELD attributes 1
U 3 12075 float
10.0004 	0.00731841 	0 10.0004 	0.00585473 	0 10.0003 	0.00439105 	0 10.0002 	0.00292736 	0 10.0001 	0.00146368 	0 10 	0 	0
10.0001 	0.000879917 	0 10 	0.000703934 	0 10 	0.00052795 	0 10 	0.000351967 	0 10 	0.000175983 	0 10 	0 	0
10.0001 	0.000467222 	0 10.0001 	0.000373587 	0 10.0001 	0.000279953 	0 10 	0.000186318 	0 10 	9.26831e-05 	0 10 	0 	0
10 	0.000267426 	0 10 	0.000213941 	0 10 	0.000160456 	0 10 	0.000106971 	0 10 	5.34853e-05 	0 10 	0 	0
10 	8.17826e-05 	0 10 	6.54261e-05 	0 10 	4.90696e-05 	0 10 	3.2713e-05 	0 10 	1.63565e-05 	0 10 	0 	0
10 	-2.49655e-05 	0 10 	-1.99724e-05 	0 10 	-1.49793e-05 	0 10 	-9.9862e-06 	0 10 	-4.9931e-06 	0 10 	0 	0
10 	-0.000215228 	0 10 	-0.000172182 	0 10 	-0.000129137 	0 10 	-8.60911e-05 	0 10 	-4.30456e-05 	0 10 	0 	0
10 	-0.000377226 	0 10 	-0.00030178 	0 10 	-0.000226335 	0 10 	-0.00015089 	0 10 	-7.54451e-05 	0 10 	0 	0
9.99999 	-0.000427182 	0 9.99999 	-0.000341746 	0 9.99999 	-0.000256309 	0 10 	-0.000170873 	0 10 	-8.54364e-05 	0 10 	0 	0
9.17387 	0.0870992 	0 9.1308 	0.0696794 	0 9.08741 	0.0522592 	0 9.04368 	0.0348389 	0 8.99962 	0.0174184 	0 8.95524 	0 	0
10.0004 	0.00731841 	0 10.0024 	0.015169 	0 10.0045 	0.0221881 	0 10.0065 	0.029163 	0 10.0085 	0.036094 	0 10.0135 	0.0463094 	0 10.0163 	0.0402089 	0 10.0207 	0.0401677 	0 10.0252 	0.0401267 	0 10.0296 	0.0400858 	0 10.0356 	0.0445467 	0 10.0384 	0.0379068 	0 10.0424 	0.0378633 	0 10.0464 	0.0378197 	0 10.0504 	0.0377761 	0 10.0545 	0.0408775 	0 10.0567 	0.0388005 	0 10.0591 	0.0401103 	0 10.0616 	0.0414216 	0 10.064 	0.0427347 	0 10.0662 	0.045193 	0 10.0677 	0.0453045 	0 10.069 	0.0465068 	0 10.0703 	0.0477103 	0 10.0717 	0.0489148 	0 10.0728 	0.0499332 	0 10.0729 	0.0499965 	0 10.0729 	0.0500597 	0 10.073 	0.050123 	0 10.0731 	0.0501863 	0 10.0732 	0.0502401 	0 10.0737 	0.0508679 	0 10.0742 	0.0514897 	0 10.0747 	0.0521119 	0 10.0752 	0.0527347 	0 10.0757 	0.0531933 	0 10.0756 	0.0534905 	0 10.0752 	0.0536822 	0 10.0749 	0.053874 	0 10.0745 	0.0540659 	0 10.074 	0.0540193 	0 10.0736 	0.0541664 	0 10.0725 	0.054145 	0 10.0714 	0.0541236 	0 10.0703 	0.0541022 	0 10.0687 	0.0538116 	0 10.0683 	0.0538949 	0 10.0667 	0.0537643 	0 10.0651 	0.0536337 	0 10.0634 	0.0535029 	0 10.0609 	0.0530859 	0 10.0609 	0.0531442 	0 10.0589 	0.0529537 	0 10.0568 	0.0527631 	0 10.0548 	0.0525724 	0 10.0512 	0.0520831 	0 10.0518 	0.0521421 	0 10.0495 	0.0519271 	0 10.0472 	0.0517121 	0 10.0449 	0.0514971 	0 10.0402 	0.0509755 	0 10.0417 	0.0510571 	0 10.0392 	0.0508403 	0 10.0366 	0.0506234 	0 10.0341 	0.0504064 	0 10.0283 	0.0498701 	0 10.0308 	0.0499827 	0 10.0281 	0.0497825 	0 10.0254 	0.0495823 	0 10.0228 	0.049382 	0 10.0158 	0.048856 	0 10.0194 	0.0490121 	0 10.0167 	0.0488325 	0 10.0139 	0.0486528 	0 10.0112 	0.0484731 	0 10.003 	0.0479509 	0 10.0079 	0.0481567 	0 10.0051 	0.0480464 	0 10.0023 	0.0479361 	0 9.99957 	0.0478258 	0 9.99027 	0.0473858 	0 9.99644 	0.0476861 	0 9.99371 	0.0476184 	0 9.99097 	0.0475508 	0 9.98823 	0.0474831 	0 9.97773 	0.0470298 	0 9.9853 	0.0473761 	0 9.98267 	0.0475149 	0 9.98005 	0.0476538 	0 9.97742 	0.0477927 	0 9.96578 	0.0476148 	0 9.97491 	0.0481126 	1.06509e-21 9.973 	0.0481957 	7.08147e-21 9.97109 	0.0482788 	1.30977e-20 9.96918 	0.0483619 	1.91139e-20 9.95716 	0.0479492 	1.61626e-20 9.96764 	0.0482068 	1.12465e-19 9.96602 	0.0479926 	1.04488e-19 9.96439 	0.0477783 	9.6507e-20 9.96277 	0.047564 	8.85235e-20 9.95055 	0.0469117 	-1.78656e-20 9.96096 	0.0468496 	-4.85432e-20 9.95938 	0.0464914 	-5.39937e-20 9.95779 	0.046133 	-5.9442e-20 9.9562 	0.0457747 	-6.48881e-20 9.9441 	0.0451359 	-2.52386e-20 9.95406 	0.0448611 	-2.22409e-20 9.95223 	0.0442033 	-1.5454e-20 9.9504 	0.0435454 	-8.66773e-21 9.94857 	0.0428873 	-1.88206e-21 9.93655 	0.042022 	8.49332e-21 9.94608 	0.0416881 	-6.44681e-21 9.94398 	0.0408201 	-2.84075e-20 9.94188 	0.0399519 	-5.03708e-20 9.93976 	0.0390836 	-7.23366e-20 9.92772 	0.0379302 	-1.03529e-19 9.93672 	0.0376988 	-1.47602e-19 9.93423 	0.0368496 	-1.33031e-19 9.93174 	0.0360002 	-1.18451e-19 9.92925 	0.0351506 	-1.03862e-19 9.91712 	0.0338711 	-3.51945e-20 9.92543 	0.0337634 	4.23013e-20 9.92253 	0.0329976 	5.82407e-20 9.91961 	0.0322315 	7.41687e-20 9.9167 	0.0314652 	9.00852e-20 9.90455 	0.0301664 	4.33084e-20 9.91208 	0.0300868 	-5.7836e-20 9.90876 	0.0293547 	-6.5041e-20 9.90544 	0.0286224 	-7.22284e-20 9.9021 	0.0278898 	-7.93982e-20 9.89002 	0.0266102 	-3.9898e-22 9.89666 	0.0264888 	7.43349e-20 9.8929 	0.0257653 	6.33231e-20 9.88912 	0.0250415 	5.22939e-20 9.88535 	0.0243175 	4.12472e-20 9.8734 	0.0230945 	-3.31302e-20 9.87897 	0.0229093 	-9.94463e-20 9.87472 	0.0221931 	-1.25596e-19 9.87046 	0.0214767 	-1.5174e-19 9.8662 	0.02076 	-1.77877e-19 9.85449 	0.0196191 	-1.59777e-19 9.85875 	0.019369 	-1.84685e-19 9.854 	0.0186645 	-1.70053e-19 9.84924 	0.0179597 	-1.55415e-19 9.84448 	0.0172546 	-1.40772e-19 9.83317 	0.0162075 	-9.74039e-20 9.83587 	0.0159012 	-8.21419e-20 9.83062 	0.0152128 	-6.0382e-20 9.82536 	0.0145241 	-3.86243e-20 9.82009 	0.013835 	-1.68686e-20 9.80943 	0.0128818 	2.68671e-21 9.81026 	0.0125114 	0 9.80452 	0.0118329 	0 9.79877 	0.011154 	0 9.79302 	0.0104748 	0 9.78331 	0.00960953 	0 9.78189 	0.00916029 	-1.90107e-20 9.77568 	0.00848736 	-4.12917e-20 9.76945 	0.0078141 	-6.35747e-20 9.76322 	0.0071405 	-8.58597e-20 9.75482 	0.00636698 	-1.09213e-19 9.75079 	0.00582661 	-1.15665e-19 9.74415 	0.00516414 	-1.16516e-19 9.73751 	0.00450132 	-1.17362e-19 9.73085 	0.00383813 	-1.18201e-19 9.72456 	0.00321217 	-1.18986e-19 9.72444 	0.0032 	-1.19025e-19 9.72432 	0.00318783 	-1.19064e-19 9.7242 	0.00317566 	-1.19104e-19 9.72407 	0.0031635 	-1.19143e-19 9.72383 	0.00314604 	-1.19142e-19 9.71673 	0.00248543 	-8.50743e-20 9.70951 	0.0018196 	-5.08342e-20 9.70228 	0.00115335 	-1.66059e-20 9.69504 	0.000486669 	1.76108e-20 9.68133 	-0.000468969 	5.95663e-20 9.67961 	-0.000871626 	6.06636e-20 9.67195 	-0.00153401 	6.19854e-20 9.66428 	-0.00219686 	6.33045e-20 9.6566 	-0.00286018 	6.46209e-20 9.63625 	-0.00406459 	6.80582e-20 9.63977 	-0.00424271 	5.37189e-20 9.63169 	-0.00490149 	3.9377e-20 9.6236 	-0.00556078 	2.50336e-20 9.6155 	-0.00622057 	1.06888e-20 9.58887 	-0.00762638 	-1.12732e-21 9.59731 	-0.00762669 	-1.00826e-20 9.58884 	-0.00828323 	-2.37711e-20 9.58035 	-0.00894032 	-3.74582e-20 9.57186 	-0.00959795 	-5.11438e-20 9.53946 	-0.0111512 	-6.4846e-20 9.55239 	-0.0110262 	-6.53656e-20 9.54356 	-0.0116827 	-7.39911e-20 9.53471 	-0.0123398 	-8.26127e-20 9.52585 	-0.0129974 	-9.12304e-20 9.48832 	-0.0146412 	-1.12497e-19 9.50524 	-0.0144424 	-1.72391e-19 9.49607 	-0.0150986 	-1.61209e-19 9.48688 	-0.0157554 	-1.50043e-19 9.47768 	-0.0164129 	-1.38893e-19 9.43571 	-0.018086 	-4.8588e-20 9.45604 	-0.0178646 	-3.1418e-20 9.44656 	-0.0185207 	-2.21115e-20 9.43706 	-0.0191773 	-1.28041e-20 9.42755 	-0.0198347 	-3.49572e-21 9.38189 	-0.0214801 	0 9.40502 	-0.0212877 	0 9.39526 	-0.0219453 	0 9.38548 	-0.0226036 	0 9.37569 	-0.0232625 	0 9.3271 	-0.0248278 	0 9.35245 	-0.0247155 	2.1509e-21 9.34243 	-0.0253755 	1.07945e-20 9.3324 	-0.0260361 	1.94371e-20 9.32235 	-0.0266975 	2.80787e-20 9.27157 	-0.0281286 	4.87367e-20 9.29856 	-0.0281446 	1.83689e-19 9.28832 	-0.028806 	1.87143e-19 9.27806 	-0.0294681 	1.90617e-19 9.26779 	-0.0301309 	1.94108e-19 9.21551 	-0.0313756 	4.89625e-20 9.24362 	-0.0315611 	2.65084e-20 9.23317 	-0.0322225 	1.87479e-20 9.22271 	-0.0328846 	1.09862e-20 9.21095 	-0.0335582 	3.9706e-21 9.15911 	-0.0345616 	2.01426e-20 9.18508 	-0.0349699 	1.22765e-19 9.17724 	-0.0356115 	1.31923e-19 9.1666 	-0.0362729 	1.33421e-19 9.15074 	-0.0369455 	1.18859e-19 9.10255 	-0.0376831 	4.5867e-21 9.12518 	-0.0383098 	-1.16781e-19 9.12074 	-0.0389632 	-1.49487e-19 9.10995 	-0.0396236 	-1.61461e-19 9.09071 	-0.0402434 	-1.50789e-19 9.04598 	-0.0407394 	-7.17038e-20 9.0655 	-0.0415616 	-2.09074e-19 9.06391 	-0.0422703 	-2.53015e-19 9.05299 	-0.0429292 	-2.55759e-19 9.03104 	-0.0434515 	-2.0381e-19 8.98957 	-0.0437311 	-5.50515e-20 9.0062 	-0.0447261 	-2.89665e-20 9.00694 	-0.045527 	-1.29797e-20 8.99592 	-0.0461844 	-4.465e-21 8.97186 	-0.0465713 	0 8.93343 	-0.0466595 	0 8.94742 	-0.0478049 	0 8.95005 	-0.0487287 	0 8.93894 	-0.0493845 	0 8.91331 	-0.0496054 	2.29645e-21 8.87769 	-0.049527 	6.17227e-21 8.88928 	-0.0508014 	2.48017e-21 8.89338 	-0.0518729 	0 8.88221 	-0.052527 	0 8.85549 	-0.0525581 	2.76174e-21 8.82246 	-0.0523365 	6.64265e-21 8.83186 	-0.0537197 	2.9502e-21 8.8371 	-0.054957 	1.54545e-21 8.82588 	-0.0556096 	9.23908e-21 8.79848 	-0.0554339 	2.8547e-20 8.76784 	-0.055092 	5.01843e-20 8.77527 	-0.0565658 	1.97298e-19 8.78133 	-0.0579827 	3.3427e-19 8.77009 	-0.0586342 	3.38418e-19 8.74237 	-0.0582404 	1.97907e-19 8.7139 	-0.0577987 	5.08054e-20 8.71956 	-0.0593459 	2.94897e-20 8.72518 	-0.0608948 	8.17566e-21 8.71372 	-0.0615043 	3.05604e-22 8.68721 	-0.0609819 	4.02969e-21 8.66072 	-0.0604592 	7.75359e-21 8.6648 	-0.0620613 	4.22329e-21 8.66883 	-0.063665 	6.94022e-22 8.65777 	-0.0642436 	2.60634e-21 8.63307 	-0.0636607 	-1.95179e-21 8.60838 	-0.0630773 	-6.5088e-21 8.61105 	-0.0647253 	-5.73651e-20 8.61367 	-0.0663749 	-1.08226e-19 8.60304 	-0.0669247 	-1.09818e-19 8.57998 	-0.0662948 	-6.33104e-20 8.55693 	-0.0656645 	-1.68001e-20 8.55836 	-0.0673541 	9.90886e-20 8.55973 	-0.0690454 	2.1497e-19 8.54958 	-0.0695671 	2.24933e-19 8.52799 	-0.0688956 	1.28376e-19 8.50642 	-0.0682236 	3.18205e-20 8.50676 	-0.0699397 	1.84848e-20 8.50705 	-0.0716576 	5.14466e-21 8.4974 	-0.0721516 	5.06642e-22 8.47713 	-0.0714539 	5.94956e-21 8.45688 	-0.0707557 	1.13945e-20 8.45627 	-0.072483 	4.84173e-21 8.4556 	-0.0742119 	-1.71739e-21 8.44647 	-0.0746809 	-2.41472e-20 8.42739 	-0.0739771 	-8.25763e-20 8.40832 	-0.0732728 	-1.41008e-19 8.40688 	-0.0750002 	-2.9375e-19 8.40537 	-0.0767291 	-4.46486e-19 8.39677 	-0.0771755 	-4.2853e-19 8.37876 	-0.0764801 	-2.53436e-19 8.36076 	-0.0757841 	-7.83447e-20 8.35858 	-0.0775041 	6.64042e-20 8.3562 	-0.0791962 	2.07884e-19 8.34779 	-0.0795925 	2.05024e-19 8.33123 	-0.0789745 	1.05563e-19 8.31421 	-0.0782968 	4.58984e-22 8.31137 	-0.0800059 	-1.03779e-19 8.3076 	-0.0815011 	-1.9259e-19 8.29933 	-0.0819069 	-2.033e-19 8.2848 	-0.081473 	-1.33685e-19 8.26866 	-0.0808205 	-4.3185e-20 8.26524 	-0.082517 	-3.01487e-20 8.26034 	-0.0838181 	-1.72281e-20 8.2522 	-0.0842352 	-4.55952e-21 8.23944 	-0.0839873 	1.53459e-20 8.2241 	-0.0833651 	3.93226e-20 8.22017 	-0.0850482 	1.38529e-20 8.21437 	-0.0861601 	-3.06633e-21 8.20635 	-0.0865903 	-9.78809e-21 8.19513 	-0.0865278 	-4.82823e-21 8.18052 	-0.0859397 	1.25849e-20 8.17613 	-0.0876095 	-6.79397e-21 8.16962 	-0.0885385 	-1.89221e-20 8.16171 	-0.0889833 	-2.63107e-20 8.15183 	-0.0891041 	-3.94732e-20 8.13788 	-0.0885528 	-6.45965e-20 8.13309 	-0.0902098 	6.12825e-20 8.12603 	-0.0909631 	9.40818e-20 8.11824 	-0.0914238 	9.67365e-20 8.10952 	-0.0917249 	8.12265e-20 8.09616 	-0.0912128 	-2.6549e-20 8.09101 	-0.0928579 	7.96077e-20 8.08356 	-0.093443 	9.25598e-20 8.07586 	-0.093921 	9.60722e-20 8.06814 	-0.0943988 	9.95123e-20 8.05534 	-0.0939274 	1.11969e-20 8.04973 	-0.0954902 	-7.20454e-22 8.04215 	-0.0959866 	-4.92851e-22 8.03454 	-0.0964832 	-2.65275e-22 8.02691 	-0.0969802 	-3.77266e-23 8.01538 	-0.0967045 	1.92287e-20 8.00925 	-0.098086 	0 8.00174 	-0.0986022 	0 7.99421 	-0.0991188 	0 7.98667 	-0.0996356 	0 7.97626 	-0.099552 	1.54494e-20 7.96972 	-0.10076 	0 7.96229 	-0.101298 	0 7.95483 	-0.101835 	0 7.94736 	-0.102373 	0 7.93793 	-0.102478 	0 7.93109 	-0.103521 	0 7.92373 	-0.104081 	0 7.91634 	-0.104641 	0 7.90894 	-0.105201 	0 7.90035 	-0.105489 	-7.14019e-21 7.89332 	-0.106376 	0 7.88601 	-0.106959 	0 7.87869 	-0.107542 	0 7.87133 	-0.108126 	0 7.86349 	-0.108593 	-6.26806e-21 7.85797 	-0.109194 	0 7.85235 	-0.109664 	0 7.84672 	-0.110135 	0 7.84107 	-0.110606 	0 7.83561 	-0.111061 	0 7.83387 	-0.111202 	0 7.83213 	-0.111343 	0 7.83039 	-0.111484 	0 7.82865 	-0.111625 	0 7.8271 	-0.111727 	0 7.81962 	-0.112397 	-1.05792e-20 7.81219 	-0.113033 	-2.16415e-20 7.80473 	-0.113669 	-3.27019e-20 7.79725 	-0.114305 	-4.37604e-20 7.7908 	-0.114737 	-5.48285e-20 7.78303 	-0.115584 	-5.14241e-20 7.77563 	-0.116247 	-5.0634e-20 7.7682 	-0.11691 	-4.984e-20 7.76075 	-0.117574 	-4.90421e-20 7.75516 	-0.117873 	-5.30533e-20 7.74709 	-0.118894 	-4.10536e-20 7.73971 	-0.119585 	-2.90304e-20 7.73231 	-0.120277 	-1.70053e-20 7.72487 	-0.120969 	-4.97807e-21 7.72013 	-0.121143 	0 7.71175 	-0.122332 	-2.00606e-21 7.70439 	-0.123053 	-7.44947e-21 7.697 	-0.123774 	-1.28918e-20 7.68958 	-0.124496 	-1.83331e-20 7.68566 	-0.124551 	-2.37434e-20 7.67697 	-0.125906 	-6.03594e-20 7.66962 	-0.126658 	-8.29125e-20 7.66224 	-0.127411 	-1.05468e-19 7.65482 	-0.128164 	-1.28025e-19 7.65169 	-0.128108 	-1.10875e-19 7.64276 	-0.129596 	-8.21454e-20 7.63534 	-0.130412 	-6.86321e-20 7.62796 	-0.131198 	-5.57869e-20 7.62123 	-0.131856 	-4.9299e-20 7.61819 	-0.131825 	-7.68543e-20 7.60928 	-0.133329 	-9.26912e-20 7.60151 	-0.134324 	-8.11272e-20 7.59412 	-0.135145 	-6.02167e-20 7.58822 	-0.135683 	-3.33516e-20 7.5851 	-0.135707 	4.3728e-21 7.57619 	-0.137229 	9.18332e-21 7.56808 	-0.1384 	8.37989e-21 7.56066 	-0.139256 	2.58246e-21 7.55558 	-0.139682 	0 7.55236 	-0.139761 	0 7.54346 	-0.141303 	0 7.53499 	-0.142645 	0 7.52755 	-0.143538 	0 7.52325 	-0.143857 	0 7.51994 	-0.143992 	0 7.51103 	-0.145554 	0 7.50219 	-0.147066 	-1.62441e-21 7.49472 	-0.147997 	-2.15463e-20 7.49117 	-0.148214 	-4.1554e-20 7.48776 	-0.148406 	-6.15644e-20 7.47884 	-0.149991 	-3.97806e-20 7.46986 	-0.151577 	-1.79884e-20 7.46283 	-0.152511 	3.88846e-21 7.45932 	-0.152761 	8.48163e-21 7.45579 	-0.15301 	1.30746e-20 7.44685 	-0.15462 	4.95936e-20 7.43785 	-0.15623 	8.61103e-20 7.43126 	-0.157196 	9.84585e-20 7.42762 	-0.157503 	8.17241e-20 7.42397 	-0.15781 	6.49867e-20 7.415 	-0.159447 	3.77621e-20 7.40597 	-0.161083 	1.05266e-20 7.39981 	-0.162083 	6.42353e-21 7.39604 	-0.162449 	1.68941e-20 7.39226 	-0.162814 	2.73662e-20 7.38325 	-0.164479 	9.839e-20 7.37418 	-0.166144 	1.69418e-19 7.36842 	-0.167179 	1.70237e-19 7.36451 	-0.167603 	1.00028e-19 7.36058 	-0.168026 	2.98171e-20 7.35153 	-0.169721 	2.03486e-20 7.34268 	-0.171371 	1.15943e-20 7.33723 	-0.172416 	1.21816e-20 7.33299 	-0.172971 	2.1117e-20 7.32891 	-0.173453 	3.13093e-20 7.31979 	-0.17518 	1.00463e-19 7.31174 	-0.176713 	1.47595e-19 7.30618 	-0.177804 	1.44831e-19 7.30142 	-0.17856 	1.02182e-19 7.29717 	-0.1791 	3.38794e-20 7.288 	-0.18086 	2.4725e-20 7.28072 	-0.18228 	1.54762e-20 7.27502 	-0.183417 	6.14918e-21 7.26975 	-0.184372 	0 7.26533 	-0.184971 	0 7.25608 	-0.186765 	0 7.24956 	-0.188077 	0 7.24372 	-0.189262 	0 7.23792 	-0.190412 	0 7.23332 	-0.191071 	0 7.22414 	-0.192874 	0 7.21819 	-0.194107 	0 7.2122 	-0.19534 	0 7.20617 	-0.196573 	0 7.20109 	-0.197403 	1.37354e-20 7.19268 	-0.199093 	2.89724e-21 7.18657 	-0.200374 	1.25076e-20 7.18042 	-0.201655 	2.2121e-20 7.17423 	-0.202936 	3.17376e-20 7.1686 	-0.20397 	4.36314e-20 7.16093 	-0.20555 	8.77559e-20 7.15466 	-0.20688 	9.2203e-20 7.14834 	-0.208209 	9.66203e-20 7.14197 	-0.209539 	1.01008e-19 7.13578 	-0.210776 	8.27476e-20 7.13133 	-0.21171 	9.65956e-20 7.12741 	-0.21255 	8.81984e-20 7.12347 	-0.213391 	7.97898e-20 7.11951 	-0.214231 	7.13699e-20 7.11569 	-0.215037 	6.32862e-20 7.11302 	-0.215581 	5.81847e-20 7.11034 	-0.216125 	5.30793e-20 7.10766 	-0.216669 	4.79701e-20 7.10497 	-0.217212 	4.2857e-20 7.10276 	-0.217702 	4.36525e-20 7.09568 	-0.219181 	4.16287e-20 7.08883 	-0.220607 	4.00954e-20 7.08193 	-0.222032 	3.85549e-20 7.07498 	-0.223457 	3.70072e-20 7.06974 	-0.224691 	4.11975e-20 7.06175 	-0.226358 	3.45844e-20 7.05469 	-0.227833 	3.3456e-20 7.04759 	-0.229308 	3.23202e-20 7.04043 	-0.230784 	3.11769e-20 7.03626 	-0.231932 	4.28146e-20 7.02732 	-0.233785 	5.44399e-20 7.02005 	-0.23531 	4.73991e-20 7.01272 	-0.236835 	4.03696e-20 7.00539 	-0.238355 	3.31456e-20 7.00226 	-0.239423 	4.08309e-21 6.99266 	-0.241401 	2.95297e-22 6.98484 	-0.243036 	-1.83194e-22 6.97728 	-0.244609 	-7.40229e-23 6.97105 	-0.246038 	0 6.96768 	-0.247162 	0 6.95786 	-0.249182 	0 6.94902 	-0.251009 	-7.22494e-21 6.94122 	-0.252631 	-2.21066e-20 6.9361 	-0.253968 	-3.43337e-20 6.93247 	-0.255147 	-4.50822e-20 6.92241 	-0.257208 	-3.16088e-20 6.91252 	-0.259226 	-1.77606e-20 6.90447 	-0.260896 	-9.38763e-22 6.90048 	-0.262142 	7.27995e-21 6.89657 	-0.263375 	1.52416e-20 6.88626 	-0.265478 	8.47226e-21 6.87589 	-0.267581 	1.70835e-21 6.86827 	-0.269274 	1.30546e-20 6.86412 	-0.270561 	3.59379e-20 6.85993 	-0.271847 	5.88209e-20 6.84937 	-0.273992 	3.47779e-20 6.83873 	-0.276136 	1.07296e-20 6.83143 	-0.277883 	-2.42641e-21 6.82698 	-0.279221 	-6.05298e-21 6.82249 	-0.28056 	-9.68152e-21 6.81166 	-0.282745 	-6.56053e-20 6.80079 	-0.284927 	-1.21159e-19 6.79396 	-0.286695 	-1.29084e-19 6.789 	-0.28812 	-9.01724e-20 6.7842 	-0.289509 	-4.63436e-20 6.7731 	-0.291733 	-9.11474e-20 6.76344 	-0.293805 	-1.16919e-19 6.75632 	-0.295617 	-1.10552e-19 6.75014 	-0.29725 	-8.49789e-20 6.74502 	-0.298687 	-3.83338e-20 6.73362 	-0.30095 	-8.5395e-20 6.7252 	-0.302908 	-8.94958e-20 6.71776 	-0.304763 	-7.89016e-20 6.71033 	-0.306605 	-6.68974e-20 6.70488 	-0.308088 	-1.40004e-20 6.69369 	-0.310335 	-1.10361e-20 6.686 	-0.31223 	-7.81369e-21 6.67824 	-0.314125 	-4.59343e-21 6.67042 	-0.316019 	-1.37535e-21 6.66373 	-0.317703 	0 6.65382 	-0.31983 	0 6.64579 	-0.321763 	0 6.6377 	-0.323697 	0 6.62954 	-0.32563 	0 6.62152 	-0.327528 	0 6.61959 	-0.327942 	-3.95458e-22 6.61797 	-0.328324 	-1.06372e-21 6.61636 	-0.328706 	-1.73206e-21 6.61474 	-0.329088 	-2.40047e-21 6.61315 	-0.329465 	-3.05922e-21 6.60601 	-0.33105 	-5.36952e-21 6.59882 	-0.332635 	-7.67837e-21 6.59158 	-0.334219 	-9.98575e-21 6.5843 	-0.335803 	-1.22917e-20 6.57786 	-0.33727 	-1.45376e-20 6.56829 	-0.339402 	-5.31278e-22 6.55905 	-0.341401 	2.57714e-21 6.54973 	-0.3434 	5.70834e-21 6.54034 	-0.345398 	8.86243e-21 6.53291 	-0.347132 	-1.81618e-20 6.52241 	-0.349463 	-9.49433e-21 6.51276 	-0.351494 	-6.01682e-22 6.50304 	-0.353525 	8.28867e-21 6.49391 	-0.35547 	1.62117e-20 6.48661 	-0.357174 	2.1381e-20 6.47566 	-0.359538 	1.49516e-20 6.46507 	-0.361766 	1.20181e-20 6.45493 	-0.363826 	1.33651e-20 6.4466 	-0.36565 	2.43843e-20 6.4389 	-0.367386 	3.89541e-20 6.42752 	-0.369775 	4.70513e-20 6.41605 	-0.372162 	5.51455e-20 6.4059 	-0.374224 	4.97899e-20 6.39784 	-0.37599 	2.59555e-20 6.38972 	-0.377755 	2.10814e-21 6.3779 	-0.380163 	2.28152e-20 6.36598 	-0.382571 	4.35115e-20 6.35606 	-0.384683 	4.05357e-20 6.34758 	-0.386472 	9.68071e-21 6.33902 	-0.388261 	-2.11839e-20 6.32674 	-0.390685 	-1.3579e-20 6.31496 	-0.393036 	-5.35703e-21 6.3051 	-0.395143 	4.95543e-21 6.29575 	-0.397076 	9.7553e-21 6.28675 	-0.398883 	1.05516e-20 6.274 	-0.401319 	1.22815e-20 6.26312 	-0.403515 	1.3639e-20 6.25281 	-0.405634 	1.48815e-20 6.2424 	-0.407752 	1.61328e-20 6.23284 	-0.409602 	2.1417e-20 6.22038 	-0.41195 	1.69628e-20 6.20968 	-0.414077 	1.24991e-20 6.19889 	-0.416202 	8.04004e-21 6.18801 	-0.418327 	3.58565e-21 6.17725 	-0.420394 	0 6.17389 	-0.421009 	0 6.17092 	-0.421578 	0 6.16794 	-0.422146 	0 6.16496 	-0.422714 	0 6.16203 	-0.423271 	0 6.15415 	-0.424837 	0 6.14622 	-0.426403 	0 6.13825 	-0.427968 	0 6.13023 	-0.429532 	0 6.12225 	-0.430967 	-4.2032e-21 6.11157 	-0.433259 	1.84392e-21 6.10037 	-0.43539 	5.66239e-21 6.08909 	-0.43752 	9.47682e-21 6.07773 	-0.439649 	1.32872e-20 6.06647 	-0.441468 	2.65951e-20 6.05568 	-0.4439 	4.92611e-20 6.0442 	-0.446099 	5.74935e-20 6.03242 	-0.448221 	6.09214e-20 6.02066 	-0.450169 	5.21011e-20 6.00891 	-0.45197 	3.287e-20 5.99762 	-0.454385 	3.53829e-20 5.98623 	-0.4568 	3.79025e-20 5.97398 	-0.458871 	3.03398e-20 5.96179 	-0.460659 	1.21692e-20 5.94952 	-0.462446 	-6.00275e-21 5.93771 	-0.46484 	-3.5364e-20 5.92581 	-0.467234 	-6.47175e-20 5.91379 	-0.469337 	-7.12858e-20 5.90107 	-0.471106 	-4.75631e-20 5.88826 	-0.472875 	-2.38377e-20 5.87593 	-0.475244 	1.38426e-20 5.86356 	-0.477498 	3.54876e-20 5.8512 	-0.479548 	2.86039e-20 5.83846 	-0.48149 	9.1155e-21 5.82512 	-0.483236 	-3.3