/*--------------------------------*- C++ -*----------------------------------*\
  =========                 |
  \\      /  F ield         | OpenFOAM: The Open Source CFD Toolbox
   \\    /   O peration     | Website:  https://openfoam.org
    \\  /    A nd           | Version:  8
     \\/     M anipulation  |
\*---------------------------------------------------------------------------*/
FoamFile
{
    version     2.0;
    format      ascii;
    class       volScalarField;
    location    "100";
    object      epsilon;
}
// * * * * * * * * * * * * * * * * * * * * * * * * * * * * * * * * * * * * * //

dimensions      [0 2 -3 0 0 0 0];

internalField   nonuniform List<scalar> 
12225
(
285.523
270.712
257.907
243.825
232.441
223.117
216.773
212.721
212.757
213.999
217.27
221
228.219
232.934
241.769
246.442
256.842
258.554
52.4869
91.9002
106.961
114.778
124.832
136.843
152.703
170.012
191.239
211.133
235.586
255.88
281.874
300.143
326.486
341.396
367.806
385.96
20.526
34.8808
44.6666
50.4826
55.3854
59.6309
64.6567
69.6813
76.3369
83.2661
91.5224
99.5031
108.378
117.37
126
136.366
143.643
156.997
16.003
19.4888
24.0766
27.5698
30.4915
32.8792
35.1518
37.3087
39.5046
41.9471
44.3546
47.2652
49.7349
53.1739
55.5568
59.5393
61.7794
66.4858
15.0386
15.7133
17.3969
19.0814
20.6368
22.0303
23.2445
24.4379
25.4447
26.6068
27.5298
28.7817
29.6532
31.0325
31.8685
33.372
34.1838
35.914
14.7897
14.8258
15.2493
15.8686
16.5663
17.2889
17.9229
18.5873
19.1196
19.7394
20.1966
20.8089
21.2183
21.8422
22.222
22.8698
23.2176
23.9587
14.7657
14.6147
14.6409
14.726
14.9345
15.2207
15.4912
15.8102
16.0712
16.385
16.6198
16.9247
17.1357
17.436
17.6268
17.9326
18.0961
18.4497
14.7686
14.5867
14.4659
14.3802
14.3676
14.3895
14.4395
14.5338
14.6185
14.7375
14.8316
14.9583
15.0498
15.1802
15.2659
15.4016
15.4739
15.6407
14.768
14.591
14.4349
14.2963
14.185
14.1044
14.0398
14.0067
13.9814
13.9787
13.9811
13.9922
14.0044
14.0313
14.0482
14.0846
14.1015
14.1601
14.7665
14.594
14.432
14.2821
14.1429
14.0219
13.9114
13.8193
13.7369
13.6697
13.6101
13.5633
13.5181
13.4874
13.4521
13.4354
13.4036
13.4043
14.7659
14.5945
14.4322
14.2803
14.1361
14.0032
13.8781
13.7643
13.658
13.5627
13.4733
13.3949
13.3195
13.2558
13.1914
13.1408
13.0841
13.0461
14.7657
14.5943
14.4321
14.2798
14.1353
13.9998
13.8714
13.7517
13.6384
13.5335
13.4338
13.3427
13.2554
13.1767
13.0999
13.0326
12.9646
12.9076
14.7657
14.5941
14.432
14.2794
14.135
13.9989
13.8698
13.7484
13.6331
13.5248
13.4218
13.3255
13.2335
13.1481
13.066
12.9903
12.917
12.8502
14.7657
14.594
14.4318
14.2791
14.1346
13.9983
13.8691
13.7472
13.6315
13.5222
13.4183
13.3202
13.2269
13.1388
13.0549
12.9758
12.9002
12.8292
14.7657
14.5938
14.4317
14.2787
14.1342
13.9977
13.8686
13.7464
13.6307
13.5211
13.4171
13.3185
13.2249
13.1361
13.0516
12.9715
12.8953
12.823
14.7657
14.5938
14.4316
14.2785
14.1339
13.9973
13.8681
13.7458
13.63
13.5203
13.4162
13.3175
13.2237
13.1348
13.0502
12.9699
12.8935
12.8208
14.7657
14.5937
14.4315
14.2783
14.1337
13.997
13.8677
13.7453
13.6295
13.5196
13.4155
13.3167
13.2229
13.1338
13.0492
12.9687
12.8922
12.8195
14.7657
14.5937
14.4314
14.2782
14.1335
13.9968
13.8674
13.745
13.6291
13.5192
13.415
13.3161
13.2222
13.1331
13.0484
12.9679
12.8913
12.8185
14.7657
14.5937
14.4314
14.2782
14.1335
13.9967
13.8673
13.7449
13.6289
13.519
13.4147
13.3158
13.2219
13.1327
13.048
12.9674
12.8908
12.8179
14.7657
14.5937
14.4314
14.2782
14.1336
13.9968
13.8675
13.745
13.6291
13.5191
13.4149
13.316
13.2222
13.1329
13.0483
12.9677
12.8911
12.8181
14.7657
14.5937
14.4315
14.2784
14.1338
13.9971
13.8678
13.7454
13.6295
13.5197
13.4155
13.3168
13.2231
13.1341
13.0496
12.9693
12.893
12.8204
14.7657
14.5937
14.4316
14.2785
14.1341
13.9975
13.8685
13.7465
13.6312
13.5221
13.4192
13.3215
13.2295
13.1421
13.0597
12.9813
12.9077
12.8372
14.7659
14.5937
14.4318
14.2788
14.1353
14.0002
13.8742
13.756
13.6464
13.5436
13.4486
13.3593
13.2772
13.1994
13.1284
13.0603
12.9991
12.9389
14.7661
14.5928
14.4329
14.2844
14.1515
14.0322
13.929
13.8376
13.7593
13.6894
13.6307
13.577
13.5328
13.4905
13.4574
13.4229
13.3987
13.3691
14.7641
14.5937
14.461
14.3604
14.3029
14.2767
14.2796
14.2939
14.3201
14.3529
14.3957
14.4343
14.4821
14.5213
14.5714
14.6082
14.6606
14.6927
14.757
14.6921
14.7579
14.9173
15.1827
15.4611
15.7473
16.012
16.2719
16.5034
16.7354
16.9378
17.1495
17.3295
17.5291
17.6914
17.8859
18.0325
14.9575
15.4344
16.5692
17.6885
18.705
19.5677
20.3366
20.9965
21.6182
22.1651
22.7168
23.2088
23.7365
24.2006
24.7274
25.1765
25.7168
26.1564
16.258
20.939
25.0148
27.7589
29.7837
31.3584
32.775
34.0573
35.3558
36.6134
37.969
39.2911
40.7506
42.1347
43.7001
45.1541
46.8558
48.3269
29.9427
47.2248
54.87
58.6728
61.6118
64.4298
67.5741
70.9729
74.7264
78.7006
82.963
87.3185
91.8672
96.4061
101.04
105.555
110.087
114.478
165.79
160.073
154.9
149.564
144.48
139.677
135.614
132.109
129.269
126.971
125.317
124.039
123.332
122.818
122.815
122.965
123.245
123.801
3.65886
2.27534
3.3842
4.36206
5.2384
6.02226
6.70966
7.26962
7.65282
7.80013
7.60791
7.54
7.69989
7.79748
7.35503
5.59564
5.73715
6.27977
6.99224
7.67682
8.90421
42.1617
49.4598
55.8585
63.0946
71.0678
79.836
89.3354
99.5768
110.472
122.014
134.1
146.721
159.769
173.232
187.007
201.096
215.399
229.932
244.604
259.442
274.365
289.411
304.51
319.7
334.917
350.203
365.5
380.848
396.194
411.579
426.952
442.348
457.722
473.103
488.448
503.781
519.066
534.319
549.509
564.643
579.701
594.679
609.566
624.346
639.024
653.566
667.987
682.243
696.373
710.319
724.148
737.786
751.328
764.682
777.966
791.077
804.154
817.093
830.055
842.911
855.85
868.732
881.771
894.787
908.018
921.279
934.809
948.464
962.419
976.62
990.989
1005.49
1020
1034.35
1048.09
1060.4
1069.35
1068.92
1082.12
1112
1115.11
1143.54
1146.36
1177.43
1185.78
1198.23
1204.3
1203.79
1227.52
1233.12
1236.93
1258.59
1256
1256.69
1261.71
1274.21
1273.02
1270.77
1278.13
1272.12
1268.12
1260.73
1251.38
1240.03
1226.78
1211.56
1194.42
1175.24
1154.17
1131.24
1106.63
1080.44
1052.88
1023.69
993.242
961.824
929.645
896.938
863.919
830.606
797.461
765.195
732.384
701.975
680.037
660.355
641.082
622.02
603.259
584.845
566.848
549.354
532.047
515.032
498.786
483.191
467.972
453.204
438.975
425.377
412.449
400.134
388.392
377.24
366.663
356.638
347.142
338.163
329.664
321.626
313.987
306.77
299.747
293.275
286.264
280.629
271.973
266.965
244.2
8.05612
4.91791
4.64313
4.87284
5.2997
5.82896
6.42471
7.06189
7.7218
8.40584
9.15082
10.0049
10.9877
12.0966
13.3873
15.0702
17.114
19.388
22.1014
25.6157
30.4741
37.4756
42.1136
46.555
51.2115
56.0978
61.2111
66.5159
71.9827
77.5848
83.3072
89.1283
95.0386
101.022
107.073
113.179
119.338
125.542
131.791
138.079
144.409
150.776
157.186
163.637
170.12
176.629
183.166
189.726
196.311
202.915
209.539
216.177
222.83
229.492
236.161
242.832
249.503
256.169
262.827
269.471
276.099
282.705
289.285
295.835
302.35
308.826
315.258
321.643
327.975
334.254
340.472
346.635
352.736
358.783
364.768
370.703
376.58
382.414
388.198
393.95
399.66
405.349
411.008
416.658
422.284
427.911
433.522
439.142
444.753
450.373
455.963
461.497
466.937
472.234
477.319
482.089
486.429
490.27
493.892
499.343
505.504
509.316
514.984
518.399
523.832
526.595
529.79
532.195
533.236
540.741
542.282
543.252
549.25
548.228
552.053
552.188
554.158
555.678
554.849
556.812
554.949
553.472
551.085
547.941
544.148
539.679
534.525
528.678
522.103
514.825
506.808
498.077
488.665
478.615
467.921
456.671
444.95
432.829
420.381
407.684
394.778
381.759
368.781
355.677
342.792
331.364
320.635
310.209
299.982
289.966
280.184
270.658
261.42
252.392
243.397
234.686
226.3
218.184
210.346
202.799
195.571
188.681
182.119
175.872
169.939
164.314
158.986
153.945
149.183
144.687
140.448
136.444
132.69
129.106
125.831
122.553
119.889
116.767
116.879
117.302
14.4825
7.93859
6.8538
6.74943
7.0093
7.47626
8.1012
8.87488
9.80654
10.9094
12.1871
13.6494
15.3091
17.1791
19.2799
21.6205
24.1351
26.8083
29.7054
32.9169
36.4958
40.3635
44.2222
48.1445
52.1912
56.3714
60.6206
64.9256
69.3168
73.7956
78.3571
82.9933
87.699
92.47
97.3063
102.2
107.146
112.143
117.188
122.278
127.413
132.591
137.809
143.066
148.359
153.687
159.046
164.437
169.856
175.303
180.775
186.271
191.788
197.324
202.877
208.443
214.019
219.603
225.192
230.781
236.367
241.946
247.514
253.067
258.6
264.109
269.589
275.036
280.445
285.812
291.133
296.405
301.624
306.788
311.893
316.938
321.92
326.839
331.692
336.48
341.201
345.855
350.442
354.962
359.411
363.792
368.101
372.338
376.498
380.577
384.562
388.435
392.178
395.772
399.197
402.442
405.516
408.487
411.517
414.845
418.089
420.898
423.866
426.409
429.1
431.229
433.372
435.349
437.312
440.089
441.583
443.117
445.181
445.977
447.494
448.092
448.821
449.369
449.273
449.069
448.057
446.838
445.111
442.859
440.108
436.829
433
428.603
423.622
418.053
411.894
405.154
397.857
390.029
381.695
372.907
363.72
354.187
344.363
334.3
324.041
313.641
303.179
292.692
282.369
272.589
263.218
254.111
245.211
236.519
228.049
219.817
211.839
204.093
196.537
189.224
182.147
175.258
168.606
162.189
156.023
150.126
144.496
139.127
134.019
129.168
124.568
120.211
116.091
112.198
108.528
105.067
101.819
98.7501
95.9151
93.2028
90.8656
88.4772
87.5305
87.3743
21.7663
11.3663
9.47709
9.08404
9.23118
9.6842
10.3623
11.2405
12.3163
13.5946
15.0816
16.7821
18.6938
20.8081
23.1114
25.5832
28.1944
30.9341
33.8196
36.8802
40.1317
43.5477
47.0804
50.7179
54.4546
58.2767
62.2033
66.2404
70.3722
74.5944
78.904
83.2861
87.7316
92.2286
96.7911
101.418
106.109
110.862
115.673
120.542
125.465
130.441
135.467
140.542
145.663
150.828
156.036
161.284
166.572
171.897
177.257
182.652
188.078
193.533
199.016
204.524
210.054
215.603
221.167
226.745
232.33
237.921
243.511
249.097
254.673
260.235
265.776
271.292
276.776
282.223
287.627
292.982
298.282
303.522
308.696
313.798
318.824
323.767
328.624
333.39
338.061
342.632
347.099
351.46
355.709
359.845
363.862
367.757
371.527
375.168
378.671
382.029
385.233
388.276
391.156
393.881
396.472
398.973
401.441
403.898
406.243
408.416
410.511
412.448
414.308
415.988
417.598
419.116
420.614
422.144
423.304
424.389
425.428
426.12
426.831
427.093
427.139
427.102
426.697
426.07
425.009
423.63
421.839
419.606
416.916
413.743
410.037
405.796
401.009
395.667
389.77
383.328
376.357
368.882
360.935
352.557
343.796
334.701
325.321
315.703
305.9
295.981
286.025
276.103
266.33
256.853
247.664
238.717
229.991
221.487
213.219
205.198
197.437
189.929
182.665
175.657
168.906
162.395
156.13
150.072
144.227
138.622
133.25
128.116
123.22
118.56
114.132
109.931
105.953
102.19
98.6381
95.2899
92.1439
89.1841
86.4326
83.8494
81.5449
79.3888
77.8426
77.2372
29.394
15.1151
12.3481
11.6538
11.6772
12.0967
12.7907
13.7139
14.8512
16.1997
17.7598
19.5301
21.5031
23.6655
25.9992
28.4848
31.1045
33.8492
36.7216
39.73
42.8792
46.1626
49.5685
53.0882
56.7156
60.4467
64.2821
68.2206
72.2568
76.3848
80.5997
84.9029
89.2934
93.7713
98.3353
102.981
107.704
112.504
117.376
122.32
127.332
132.41
137.552
142.756
148.019
153.339
158.715
164.144
169.625
175.156
180.735
186.36
192.03
197.742
203.494
209.284
215.108
220.964
226.849
232.759
238.689
244.636
250.594
256.558
262.522
268.48
274.425
280.35
286.248
292.111
297.932
303.701
309.412
315.055
320.621
326.104
331.493
336.782
341.962
347.025
351.965
356.774
361.447
365.976
370.356
374.583
378.651
382.556
386.295
389.863
393.26
396.478
399.516
402.372
405.05
407.558
409.916
412.149
414.28
416.311
418.213
419.971
421.603
423.103
424.483
425.733
426.866
427.894
428.841
429.692
430.345
430.9
431.31
431.433
431.36
431.124
430.738
430.158
429.314
428.208
426.773
425.012
422.876
420.335
417.36
413.925
409.987
405.533
400.548
395.023
388.957
382.356
375.235
367.619
359.538
351.031
342.142
332.917
323.408
313.672
303.776
293.791
283.792
273.851
264.051
254.471
245.131
236.024
227.147
218.509
210.122
201.997
194.143
186.562
179.252
172.216
165.454
158.959
152.726
146.737
140.989
135.468
130.153
125.06
120.191
115.545
111.12
106.914
102.924
99.1393
95.5649
92.1945
89.0247
86.0469
83.2702
80.682
78.3345
76.2023
74.4561
73.3886
36.9228
18.9468
15.3028
14.2941
14.1869
14.5507
15.2311
16.1601
17.31
18.6695
20.2334
21.9965
23.951
26.0849
28.3841
30.8336
33.421
36.138
38.9821
41.9539
45.0541
48.2809
51.6308
55.1003
58.6863
62.3869
66.201
70.1271
74.1631
78.3066
82.5559
86.9103
91.3689
95.9308
100.594
105.357
110.215
115.168
120.212
125.344
130.562
135.863
141.246
146.706
152.242
157.852
163.533
169.283
175.1
180.984
186.93
192.938
199.006
205.132
211.312
217.546
223.83
230.161
236.535
242.949
249.397
255.876
262.379
268.901
275.434
281.971
288.503
295.024
301.522
307.989
314.414
320.787
327.096
333.332
339.481
345.534
351.478
357.302
362.995
368.546
373.946
379.184
384.252
389.14
393.842
398.35
402.659
406.763
410.658
414.344
417.817
421.075
424.117
426.946
429.566
431.986
434.22
436.283
438.191
439.944
441.537
442.964
444.234
445.349
446.318
447.147
447.824
448.349
448.764
449.066
449.14
448.989
448.741
448.296
447.702
446.927
445.974
444.816
443.418
441.759
439.802
437.526
434.894
431.876
428.437
424.548
420.179
415.307
409.914
403.991
397.532
390.543
383.038
375.038
366.572
357.68
348.403
338.795
328.915
318.83
308.61
298.326
288.047
277.842
267.776
257.903
248.252
238.835
229.661
220.743
212.093
203.723
195.64
187.849
180.35
173.146
166.233
159.606
153.26
147.183
141.367
135.8
130.468
125.349
120.436
115.734
111.244
106.966
102.901
99.0414
95.3939
91.952
88.712
85.6691
82.827
80.1837
77.7669
75.5836
73.7138
72.2962
44.1107
22.7017
18.2018
16.8735
16.6286
16.923
17.5702
18.4811
19.6155
20.9547
22.4889
24.211
26.114
28.1888
30.4254
32.8135
35.344
38.0104
40.809
43.7381
46.797
49.9851
53.3013
56.7446
60.314
64.009
67.8291
71.774
75.843
80.0354
84.3508
88.7886
93.3481
98.0284
102.828
107.745
112.778
117.924
123.18
128.544
134.014
139.586
145.258
151.027
156.891
162.847
168.894
175.027
181.247
187.55
193.935
200.4
206.943
213.562
220.254
227.018
233.849
240.746
247.704
254.719
261.786
268.9
276.055
283.242
290.455
297.685
304.922
312.157
319.377
326.571
333.727
340.832
347.871
354.831
361.698
368.456
375.092
381.59
387.936
394.116
400.118
405.927
411.533
416.924
422.09
427.023
431.716
436.16
440.354
444.293
447.977
451.404
454.574
457.49
460.157
462.584
464.779
466.756
468.525
470.09
471.453
472.615
473.578
474.345
474.925
475.356
475.589
475.575
475.364
475.041
474.509
473.8
472.923
471.863
470.629
469.205
467.587
465.754
463.683
461.352
458.736
455.806
452.534
448.887
444.835
440.345
435.392
429.948
423.997
417.524
410.526
403.004
394.971
386.446
377.459
368.05
358.268
348.172
337.827
327.301
316.664
305.985
295.33
284.762
274.336
264.099
254.081
244.305
234.786
225.539
216.577
207.911
199.549
191.496
183.754
176.322
169.199
162.379
155.856
149.62
143.662
137.97
132.533
127.334
122.354
117.568
112.981
108.6
104.431
100.472
96.7239
93.1836
89.8487
86.7157
83.7864
81.0623
78.5598
76.2931
74.3107
72.628
50.7537
26.247
20.9327
19.2878
18.9011
19.1172
19.7193
20.5981
21.7023
23.0061
24.4962
26.1643
28.0041
30.0091
32.1727
34.4882
36.9499
39.5529
42.2943
45.1723
48.1861
51.3354
54.6203
58.0408
61.5973
65.2903
69.1204
73.0882
77.1941
81.4386
85.8221
90.3446
95.0063
99.8065
104.745
109.819
115.029
120.371
125.845
131.447
137.176
143.027
149
155.091
161.298
167.618
174.049
180.589
187.236
193.988
200.842
207.798
214.854
222.006
229.254
236.594
244.023
251.539
259.137
266.814
274.563
282.378
290.253
298.18
306.15
314.152
322.177
330.212
338.243
346.258
354.241
362.176
370.047
377.837
385.527
393.102
400.541
407.827
414.942
421.869
428.591
435.092
441.356
447.371
453.123
458.602
463.797
468.701
473.308
477.615
481.62
485.321
488.718
491.814
494.614
497.125
499.355
501.314
503.011
504.452
505.643
506.588
507.29
507.741
507.918
507.855
507.585
507.076
506.358
505.436
504.293
502.941
501.384
499.623
497.657
495.481
493.086
490.461
487.59
484.453
481.03
477.298
473.231
468.802
463.98
458.738
453.049
446.888
440.237
433.083
425.419
417.246
408.577
399.431
389.843
379.855
369.52
358.898
348.056
337.06
325.98
314.88
303.824
292.868
282.064
271.453
261.068
250.934
241.071
231.496
222.221
213.258
204.613
196.292
188.295
180.624
173.275
166.244
159.523
153.103
146.975
141.128
135.549
130.225
125.14
120.263
115.569
111.075
106.791
102.719
98.8602
95.213
91.7748
88.5432
85.5187
82.7036
80.1079
77.7448
75.6485
73.7583
56.688
29.4733
23.407
21.458
20.9298
21.064
21.6152
22.4556
23.5236
24.7874
26.2303
27.843
29.6194
31.5549
33.6455
35.8872
38.2769
40.8117
43.4898
46.3102
49.2727
52.3773
55.625
59.0165
62.5531
66.2362
70.0673
74.0479
78.1796
82.4637
86.9015
91.494
96.2421
101.146
106.206
111.421
116.791
122.314
127.989
133.814
139.787
145.905
152.167
158.571
165.113
171.792
178.606
185.552
192.629
199.834
207.167
214.625
222.207
229.911
237.734
245.675
253.729
261.895
270.167
278.541
287.012
295.573
304.216
312.932
321.713
330.546
339.419
348.318
357.229
366.135
375.019
383.863
392.646
401.349
409.952
418.431
426.766
434.935
442.916
450.688
458.231
465.524
472.55
479.291
485.731
491.857
497.657
503.12
508.24
513.01
517.429
521.492
525.202
528.558
531.565
534.23
536.559
538.561
540.243
541.616
542.686
543.462
543.903
544.017
543.813
543.359
542.63
541.625
540.355
538.825
537.032
534.985
532.688
530.145
527.358
524.326
521.043
517.503
513.694
509.607
505.224
500.532
495.506
490.127
484.369
478.209
471.623
464.591
457.095
449.124
440.672
431.742
422.349
412.516
402.28
391.683
380.779
369.626
358.288
346.831
335.319
323.815
312.377
301.057
289.901
278.948
268.229
257.775
247.605
237.738
228.184
218.953
210.053
201.487
193.258
185.363
177.802
170.57
163.658
157.058
150.76
144.753
139.025
133.564
128.354
123.371
118.569
113.962
109.564
105.38
101.413
97.6598
94.1193
90.7893
87.6694
84.7615
82.0716
79.6092
77.3997
75.3414
61.7946
32.2992
25.5626
23.3319
22.6678
22.7215
23.2206
24.0215
25.0533
26.279
27.6788
29.2416
30.9616
32.8349
34.8591
37.0323
39.3531
41.8204
44.4338
47.1932
50.0991
53.1525
56.3548
59.7076
63.2131
66.8734
70.691
74.6684
78.8081
83.1124
87.5838
92.2241
97.0352
102.018
107.175
112.505
118.009
123.686
129.537
135.56
141.753
148.116
154.646
161.341
168.201
175.223
182.405
189.746
197.244
204.898
212.705
220.665
228.776
237.036
245.444
253.995
262.689
271.521
280.487
289.583
298.802
308.137
317.58
327.121
336.75
346.454
356.22
366.031
375.871
385.722
395.563
405.374
415.132
424.813
434.394
443.848
453.151
462.277
471.199
479.894
488.336
496.501
504.369
511.917
519.127
525.982
532.467
538.57
544.279
549.591
554.497
558.995
563.085
566.767
570.044
572.921
575.404
577.501
579.219
580.567
581.558
582.161
582.369
582.203
581.7
580.861
579.688
578.181
576.347
574.191
571.715
568.927
565.831
562.435
558.742
554.754
550.471
545.892
541.011
535.825
530.324
524.502
518.344
511.837
504.964
497.709
490.055
481.987
473.494
464.569
455.211
445.428
435.237
424.666
413.751
402.532
391.059
379.387
367.578
355.693
343.79
331.928
320.159
308.53
297.081
285.847
274.859
264.148
253.736
243.637
233.863
224.421
215.318
206.556
198.136
190.058
182.32
174.917
167.842
161.086
154.637
148.485
142.62
137.028
131.696
126.6
121.693
116.98
112.478
108.193
104.126
100.277
96.6422
93.2207
90.0113
87.0151
84.2348
81.6767
79.3588
77.161
66.0029
34.6737
27.3644
24.8837
24.0939
24.0745
24.5209
25.2841
26.2836
27.4771
28.8417
30.3646
32.0392
33.8618
35.8309
37.9455
40.2055
42.6111
45.163
47.862
50.7097
53.7079
56.8587
60.1647
63.6289
67.2545
71.0449
75.0035
79.1339
83.4396
87.9239
92.59
97.4408
102.479
107.707
113.126
118.738
124.543
130.544
136.738
143.128
149.711
156.487
163.455
170.613
177.961
185.498
193.221
201.131
209.224
217.501
225.961
234.6
243.419
252.415
261.585
270.928
280.438
290.113
299.945
309.931
320.06
330.326
340.716
351.22
361.824
372.512
383.268
394.071
404.902
415.739
426.556
437.33
448.032
458.636
469.111
479.43
489.561
499.475
509.144
518.538
527.629
536.392
544.802
552.836
560.474
567.698
574.493
580.846
586.748
592.193
597.175
601.693
605.745
609.335
612.466
615.143
617.372
619.161
620.518
621.442
621.908
621.936
621.545
620.742
619.532
617.921
615.909
613.502
610.7
607.512
603.94
599.992
595.675
590.996
585.958
580.568
574.826
568.738
562.303
555.525
548.403
540.935
533.117
524.944
516.409
507.509
498.238
488.594
478.58
468.205
457.478
446.422
435.066
423.451
411.606
399.576
387.414
375.174
362.912
350.681
338.53
326.506
314.65
302.994
291.566
280.392
269.512
258.945
248.7
238.787
229.211
219.976
211.084
202.537
194.332
186.47
178.945
171.751
164.876
158.312
152.046
146.069
140.368
134.93
129.73
124.725
119.922
115.333
110.965
106.816
102.885
99.1712
95.6709
92.383
89.3076
86.4455
83.7997
81.3822
79.0689
69.2815
36.5691
28.795
26.1011
25.1965
25.1132
25.516
26.248
27.2222
28.3921
29.7319
31.2273
32.8704
34.6571
36.5858
38.6559
40.8679
43.2229
45.7221
48.3676
51.1616
54.1068
57.2064
60.4639
63.8834
67.4692
71.2258
75.1577
79.2693
83.5651
88.0497
92.7275
97.6027
102.679
107.961
113.452
119.154
125.07
131.203
137.554
144.124
150.914
157.923
165.153
172.602
180.27
188.156
196.259
204.579
213.115
221.865
230.828
240.004
249.39
258.985
268.786
278.79
288.993
299.391
309.977
320.745
331.687
342.792
354.049
365.446
376.968
388.597
400.314
412.099
423.929
435.779
447.621
459.428
471.17
482.814
494.329
505.681
516.836
527.761
538.421
548.785
558.82
568.497
577.788
586.664
595.105
603.087
610.593
617.607
624.12
630.121
635.604
640.566
645.006
648.925
652.326
655.212
657.59
659.463
660.839
661.713
662.081
661.952
661.331
660.228
658.65
656.596
654.069
651.07
647.6
643.664
639.267
634.413
629.11
623.366
617.189
610.585
603.564
596.135
588.308
580.094
571.504
562.547
553.232
543.572
533.575
523.251
512.613
501.67
490.439
478.939
467.182
455.197
443.015
430.668
418.173
405.593
392.972
380.357
367.793
355.322
342.985
330.817
318.848
307.105
295.602
284.358
273.419
262.803
252.517
242.563
232.947
223.67
214.733
206.135
197.876
189.956
182.372
175.116
168.176
161.543
155.205
149.153
143.376
137.858
132.574
127.493
122.624
117.974
113.546
109.338
105.348
101.573
98.0112
94.6603
91.5196
88.5879
85.8663
83.3617
80.955
71.6302
37.9793
29.8562
26.9926
25.993
25.8569
26.2252
26.9343
27.8922
29.0493
30.3773
31.86
33.4883
35.2572
37.1644
39.2092
41.3922
43.7147
46.1786
48.7863
51.5411
54.4464
57.5067
60.7264
64.1109
67.6658
71.3979
75.3112
79.4109
83.7024
88.1914
92.8836
97.7849
102.901
108.237
113.8
119.592
125.62
131.887
138.399
145.156
152.16
159.414
166.917
174.67
182.673
190.926
199.429
208.18
217.179
226.426
235.918
245.655
255.634
265.854
276.311
287.002
297.922
309.066
320.428
331.999
343.771
355.732
367.87
380.171
392.618
405.194
417.876
430.642
443.467
456.324
469.183
482.013
494.779
507.449
519.984
532.349
544.506
556.417
568.045
579.353
590.306
600.87
611.013
620.706
629.921
638.634
646.825
654.477
661.574
668.107
674.068
679.453
684.258
688.486
692.138
695.217
697.727
699.671
701.056
701.88
702.141
701.843
700.968
699.547
697.579
695.06
691.991
688.367
684.191
679.462
674.184
668.361
662.001
655.109
647.696
639.772
631.352
622.449
613.084
603.276
593.05
582.429
571.44
560.114
548.479
536.565
524.41
512.028
499.44
486.62
473.671
460.634
447.56
434.493
421.464
408.451
395.489
382.615
369.862
357.264
344.849
332.644
320.673
308.95
297.481
286.266
275.406
264.881
254.685
244.819
235.284
226.079
217.204
208.656
200.424
192.526
184.958
177.708
170.766
164.122
157.762
151.682
145.871
140.31
134.972
129.852
124.952
120.273
115.815
111.575
107.551
103.74
100.138
96.7434
93.5547
90.5694
87.7873
85.2109
82.7322
73.078
38.9152
30.5637
27.5803
26.5109
26.3366
26.6828
27.3805
28.3348
29.4935
30.8265
32.3159
33.9512
35.7263
37.638
39.6852
41.8679
44.1874
46.6458
49.246
51.9919
54.8879
57.9394
61.1529
64.5336
68.0871
71.8199
75.7385
79.8503
84.1626
88.6828
93.4183
98.3767
103.566
108.993
114.666
120.591
126.773
133.22
139.934
146.921
154.184
161.727
169.553
177.662
186.053
194.728
203.685
212.925
222.445
232.244
242.321
252.675
263.301
274.198
285.36
296.783
308.462
320.39
332.559
344.961
357.584
370.416
383.443
396.651
410.019
423.529
437.157
450.879
464.668
478.493
492.323
506.124
519.858
533.49
546.979
560.285
573.367
586.185
598.697
610.865
622.649
634.013
644.921
655.342
665.245
674.604
683.396
691.6
699.203
706.19
712.552
718.285
723.386
727.855
731.693
734.903
737.487
739.449
740.794
741.527
741.631
741.105
739.929
738.142
735.733
732.697
729.028
724.72
719.772
714.18
707.945
701.07
693.558
685.418
676.661
667.299
657.35
646.837
635.786
624.233
612.213
599.765
586.933
573.784
560.355
546.651
532.7
518.63
504.515
490.515
476.542
462.626
448.816
435.196
421.623
408.188
394.925
381.857
369.003
356.383
344.011
331.902
320.065
308.507
297.221
286.184
275.501
265.149
255.123
245.422
236.044
226.988
218.252
209.831
201.718
193.938
186.476
179.317
172.451
165.864
159.544
153.49
147.693
142.128
136.794
131.683
126.792
122.122
117.669
113.431
109.403
105.582
101.965
98.5494
95.3334
92.3135
89.4889
86.8584
84.3292
73.652
39.394
30.9418
27.8958
26.789
26.5976
26.9405
27.6454
28.616
29.7989
31.1625
32.6877
34.3628
36.1805
38.1366
40.2292
42.4578
44.8234
47.3279
49.9747
52.7681
55.7135
58.8155
62.0792
65.5119
69.1214
72.9156
76.903
81.0928
85.4943
90.117
94.9705
100.065
105.409
111.013
116.886
123.036
129.47
136.196
143.22
150.546
158.179
166.122
174.38
182.955
191.847
201.054
210.577
220.414
230.563
241.021
251.786
262.853
274.219
285.878
297.825
310.053
322.554
335.32
348.34
361.604
375.099
388.811
402.724
416.821
431.082
445.485
460.005
474.617
489.29
503.994
518.694
533.354
547.936
562.4
576.703
590.804
604.66
618.227
631.462
644.323
656.771
668.766
680.271
691.251
701.677
711.518
720.75
729.351
737.305
744.597
751.218
757.16
762.421
767.001
770.901
774.123
776.667
778.538
779.741
780.273
780.129
779.273
777.708
775.461
772.517
768.868
764.501
759.411
753.587
747.027
739.724
731.682
722.901
713.39
703.158
692.223
680.607
668.339
655.454
642.007
628.046
613.626
598.743
583.463
567.937
552.33
536.798
521.301
505.983
490.669
475.52
460.598
445.948
431.599
417.536
403.775
390.327
377.197
364.387
351.899
339.731
327.881
316.345
305.118
294.19
283.554
273.232
263.225
253.53
244.146
235.067
226.292
217.818
209.636
201.724
194.13
186.833
179.822
173.086
166.612
160.38
154.412
148.686
143.194
137.929
132.884
128.051
123.433
119.025
114.824
110.826
107.025
103.42
100.009
96.7888
93.7559
90.9091
88.244
85.6864
73.5134
39.4792
31.0492
28.0025
26.8946
26.7155
27.086
27.8317
28.8561
30.1053
31.5473
33.1618
34.9359
36.8615
38.9336
41.1495
43.5081
46.0098
48.6563
51.4504
54.3957
57.4967
60.7598
64.1918
67.8008
71.5957
75.5862
79.7827
84.1965
88.8388
93.7215
98.8562
104.255
109.929
115.891
122.15
128.716
135.598
142.805
150.343
158.219
166.435
174.995
183.901
193.156
202.761
212.713
223.01
233.648
244.623
255.93
267.564
279.517
291.783
304.353
317.218
330.367
343.79
357.475
371.409
385.578
399.966
414.559
429.336
444.28
459.369
474.579
489.886
505.261
520.674
536.093
551.482
566.806
582.023
597.094
611.976
626.625
640.998
655.051
668.74
682.023
694.858
707.208
719.034
730.302
740.979
751.037
760.449
769.193
777.252
784.608
791.251
797.175
802.375
806.852
810.607
813.64
815.951
817.544
818.432
818.579
818.015
816.645
814.529
811.654
808.006
803.571
798.334
792.283
785.406
777.695
769.142
759.745
749.504
738.428
726.528
713.823
700.345
686.13
671.212
655.571
639.297
622.53
605.498
588.314
571
553.759
536.416
519.196
502.219
485.533
469.22
453.341
437.936
423.024
408.601
394.661
381.19
368.172
355.589
343.421
331.648
320.249
309.205
298.496
288.104
278.013
268.224
258.731
249.53
240.616
231.983
223.627
215.544
207.73
200.175
192.888
185.867
179.101
172.583
166.303
160.235
154.411
148.821
143.457
138.312
133.378
128.646
124.127
119.81
115.688
111.755
108.008
104.446
101.066
97.8669
94.8441
91.997
89.318
86.7539
72.888
39.3141
30.9801
27.9893
26.9396
26.8333
27.2947
28.1494
29.3025
30.7006
32.3115
34.1153
36.0989
38.2539
40.5746
43.0578
45.7019
48.5067
51.4737
54.6052
57.9051
61.3783
65.0313
68.8716
72.9082
77.1508
81.6104
86.2986
91.2282
96.4118
101.863
107.595
113.622
119.958
126.616
133.605
140.936
148.618
156.661
165.07
173.849
183.001
192.527
202.425
212.692
223.326
234.324
245.68
257.389
269.44
281.825
294.533
307.553
320.873
334.478
348.356
362.491
376.867
391.47
406.281
421.285
436.463
451.797
467.266
482.851
498.531
514.281
530.077
545.893
561.698
577.461
593.149
608.726
624.154
639.393
654.403
669.142
683.567
697.637
711.311
724.547
737.307
749.554
761.251
772.365
782.865
792.724
801.913
810.413
818.201
825.263
831.585
837.159
841.982
846.053
849.372
851.939
853.751
854.811
855.121
854.695
853.437
851.361
848.474
844.757
840.194
834.764
828.45
821.233
813.099
804.034
794.03
783.081
771.186
758.355
744.604
729.942
714.341
697.854
680.588
662.745
644.423
625.668
606.709
587.396
567.983
548.633
529.438
510.541
492.071
474.125
456.787
440.118
424.151
408.894
394.33
380.433
367.165
354.487
342.356
330.73
319.567
308.829
298.48
288.484
278.812
269.44
260.352
251.538
242.988
234.696
226.653
218.851
211.288
203.961
196.861
189.989
183.347
176.922
170.71
164.714
158.926
153.351
147.988
142.832
137.878
133.12
128.547
124.167
119.974
115.963
112.128
108.464
104.977
101.661
98.5121
95.5264
92.7043
90.0352
87.4882
71.5371
38.8079
30.7451
27.9313
27.0403
27.0897
27.7343
28.8007
30.1984
31.876
33.8028
35.9594
38.3333
40.9163
43.703
46.6898
49.8751
53.2583
56.84
60.6227
64.6098
68.8061
73.2175
77.851
82.7149
87.8189
93.1736
98.7904
104.682
110.86
117.339
124.133
131.256
138.724
146.55
154.74
163.3
172.235
181.547
191.237
201.31
211.764
222.599
233.81
245.391
257.333
269.627
282.262
295.226
308.502
322.076
335.931
350.05
364.415
379.008
393.808
408.797
423.954
439.262
454.699
470.247
485.887
501.6
517.366
533.167
548.982
564.792
580.574
596.306
611.961
627.512
642.93
658.183
673.237
688.058
702.607
716.849
730.746
744.26
757.353
769.99
782.134
793.753
804.813
815.284
825.137
834.345
842.883
850.73
857.863
864.263
869.917
874.815
878.95
882.322
884.93
886.772
887.836
888.133
887.695
886.421
884.297
881.324
877.482
872.749
867.102
860.516
852.967
844.436
834.901
824.346
812.762
800.142
786.475
771.721
755.904
739.08
721.396