/*--------------------------------*- C++ -*----------------------------------*\
  =========                 |
  \\      /  F ield         | OpenFOAM: The Open Source CFD Toolbox
   \\    /   O peration     | Website:  https://openfoam.org
    \\  /    A nd           | Version:  8
     \\/     M anipulation  |
\*---------------------------------------------------------------------------*/
FoamFile
{
    version     2.0;
    format      ascii;
    class       volScalarField;
    location    "100";
    object      k;
}
// * * * * * * * * * * * * * * * * * * * * * * * * * * * * * * * * * * * * * //

dimensions      [0 2 -2 0 0 0 0];

internalField   nonuniform List<scalar> 
12225
(
0.362814
0.344001
0.327732
0.309838
0.295373
0.283524
0.275462
0.270313
0.270359
0.27192
0.276111
0.280772
0.290039
0.295998
0.306972
0.314254
0.323573
0.33782
0.440192
0.468696
0.461605
0.448377
0.450365
0.45834
0.474463
0.498846
0.524373
0.552604
0.580945
0.606926
0.634506
0.655116
0.681285
0.696177
0.72183
0.736624
0.390545
0.417868
0.42023
0.416824
0.411632
0.407808
0.408017
0.410057
0.414547
0.42152
0.430826
0.439905
0.4515
0.461557
0.473576
0.484652
0.495169
0.509745
0.377546
0.38698
0.391407
0.391342
0.390222
0.387897
0.385663
0.384085
0.382886
0.382908
0.383415
0.384364
0.386407
0.388585
0.39115
0.394636
0.397115
0.402267
0.374562
0.376089
0.378413
0.378665
0.378263
0.377204
0.375489
0.373735
0.372011
0.370452
0.369264
0.368112
0.367401
0.366853
0.366492
0.366494
0.366551
0.367099
0.373815
0.372709
0.372645
0.372383
0.371761
0.370814
0.369553
0.368079
0.366569
0.364971
0.363524
0.362059
0.360749
0.359536
0.358399
0.35746
0.356493
0.355902
0.373783
0.371742
0.370386
0.369286
0.368234
0.367112
0.365913
0.364583
0.363234
0.361802
0.360414
0.359015
0.357665
0.356372
0.355106
0.353959
0.352792
0.351824
0.37382
0.37156
0.369635
0.367976
0.3665
0.365106
0.363774
0.362426
0.361103
0.35976
0.358441
0.357133
0.355848
0.354606
0.353381
0.352229
0.35108
0.350041
0.373832
0.371553
0.369449
0.367525
0.365776
0.364152
0.362643
0.361196
0.359813
0.358467
0.357161
0.355892
0.354653
0.353458
0.352287
0.351174
0.350075
0.349054
0.373831
0.37156
0.369418
0.367405
0.365529
0.363772
0.362131
0.360583
0.359118
0.357722
0.356387
0.355108
0.353876
0.352695
0.351552
0.350462
0.349401
0.348403
0.373829
0.371561
0.369413
0.367378
0.365458
0.363645
0.361936
0.360322
0.358795
0.357348
0.355973
0.354664
0.353414
0.352223
0.351081
0.349994
0.348945
0.347956
0.373828
0.371559
0.369409
0.367371
0.365439
0.363608
0.361875
0.360232
0.358675
0.357198
0.355795
0.354462
0.353193
0.351986
0.350832
0.349737
0.348686
0.347692
0.373827
0.371557
0.369405
0.367365
0.36543
0.363593
0.36185
0.360196
0.358624
0.357132
0.355712
0.354363
0.353079
0.351859
0.350694
0.349588
0.34853
0.347528
0.373827
0.371555
0.369402
0.36736
0.365423
0.363583
0.361837
0.360177
0.3586
0.3571
0.355672
0.354315
0.353022
0.351792
0.350619
0.349504
0.348439
0.347427
0.373826
0.371553
0.369399
0.367355
0.365416
0.363575
0.361826
0.360164
0.358584
0.357081
0.355651
0.354289
0.352993
0.351758
0.350581
0.34946
0.348391
0.347372
0.373826
0.371552
0.369396
0.367351
0.36541
0.363568
0.361818
0.360154
0.358572
0.357068
0.355635
0.354272
0.352973
0.351736
0.350557
0.349434
0.348362
0.34734
0.373825
0.371551
0.369394
0.367348
0.365406
0.363562
0.361811
0.360146
0.358563
0.357057
0.355623
0.354258
0.352958
0.35172
0.350539
0.349414
0.34834
0.347317
0.373825
0.371551
0.369393
0.367346
0.365404
0.363559
0.361806
0.36014
0.358556
0.357049
0.355614
0.354248
0.352947
0.351707
0.350526
0.349399
0.348324
0.347299
0.373825
0.37155
0.369393
0.367346
0.365403
0.363557
0.361804
0.360138
0.358553
0.357045
0.35561
0.354243
0.352942
0.351701
0.350519
0.349391
0.348315
0.347289
0.373825
0.371551
0.369394
0.367346
0.365404
0.363559
0.361807
0.36014
0.358556
0.357048
0.355614
0.354247
0.352946
0.351704
0.350522
0.349394
0.348319
0.347293
0.373825
0.371552
0.369395
0.367349
0.365407
0.363564
0.361811
0.360147
0.358563
0.357057
0.355623
0.354259
0.352958
0.35172
0.350539
0.349413
0.348339
0.347315
0.373826
0.371553
0.369397
0.367352
0.365413
0.363571
0.361823
0.360162
0.358585
0.357085
0.355659
0.354301
0.35301
0.351779
0.350607
0.349489
0.348424
0.347406
0.373826
0.371554
0.369399
0.36736
0.365429
0.363603
0.361876
0.360241
0.358692
0.357222
0.355826
0.354496
0.353231
0.352023
0.350871
0.349768
0.348718
0.347708
0.373828
0.371551
0.369412
0.367417
0.365556
0.36382
0.36219
0.360652
0.359191
0.357796
0.356459
0.355175
0.353939
0.35275
0.351605
0.350501
0.349443
0.348418
0.373823
0.371554
0.369605
0.367893
0.36634
0.364893
0.363496
0.362123
0.360763
0.359416
0.358083
0.356773
0.355492
0.354242
0.353034
0.351861
0.35074
0.349652
0.373788
0.371991
0.371113
0.370266
0.369361
0.368312
0.367049
0.365631
0.364122
0.362577
0.361032
0.359525
0.358076
0.356685
0.355385
0.354145
0.353013
0.351928
0.374355
0.375572
0.377776
0.377858
0.377288
0.375886
0.373836
0.371642
0.369506
0.367483
0.365664
0.364083
0.36271
0.361533
0.360607
0.359814
0.359284
0.358792
0.379125
0.394297
0.39825
0.396574
0.392539
0.387604
0.383646
0.380448
0.378266
0.376849
0.37649
0.376732
0.377404
0.378673
0.380415
0.382391
0.384783
0.387087
0.408394
0.42754
0.422415
0.411054
0.402225
0.397919
0.398619
0.400951
0.40605
0.413026
0.420956
0.429774
0.438761
0.448102
0.457191
0.466421
0.475156
0.483998
0.36605
0.353414
0.341989
0.330208
0.318984
0.30838
0.299412
0.291669
0.285403
0.28033
0.276677
0.273857
0.272298
0.271154
0.271183
0.271438
0.272152
0.273338
0.0123481
0.0352718
0.0526053
0.0678508
0.0815197
0.093842
0.104959
0.114723
0.122985
0.129718
0.134879
0.139946
0.144857
0.148646
0.150413
0.149633
0.164072
0.173698
0.178309
0.17698
0.171822
0.150176
0.167494
0.181673
0.197264
0.213523
0.23058
0.248291
0.266627
0.285416
0.304616
0.32406
0.34372
0.363445
0.383224
0.40293
0.422574
0.442053
0.461396
0.480516
0.499459
0.518152
0.536648
0.554893
0.572939
0.590737
0.608338
0.6257
0.642871
0.659814
0.676571
0.69311
0.709465
0.725607
0.741564
0.757308
0.772862
0.788203
0.803344
0.818269
0.832981
0.847473
0.861736
0.875775
0.889569
0.903135
0.916439
0.929511
0.942306
0.954863
0.96713
0.979163
0.990902
1.00243
1.01366
1.02471
1.03548
1.0461
1.05647
1.06674
1.0768
1.0868
1.09664
1.10649
1.1162
1.12598
1.13569
1.1455
1.15533
1.16529
1.17535
1.18545
1.19553
1.20544
1.21493
1.22334
1.22939
1.22852
1.23742
1.25839
1.2598
1.27945
1.28101
1.30193
1.30536
1.32318
1.3246
1.32312
1.3301
1.34193
1.3551
1.35522
1.35549
1.35921
1.36381
1.37459
1.37105
1.37714
1.37141
1.37279
1.37622
1.37147
1.36742
1.36053
1.35271
1.34339
1.3327
1.32065
1.30711
1.2921
1.27562
1.25776
1.23853
1.21806
1.19635
1.17327
1.14912
1.12402
1.09809
1.07151
1.04436
1.01665
0.988846
0.961339
0.932794
0.907307
0.888367
0.870605
0.852951
0.835324
0.817805
0.800432
0.783306
0.766379
0.749477
0.732752
0.716653
0.700978
0.685482
0.670291
0.655523
0.641283
0.627577
0.614355
0.601625
0.589407
0.577692
0.566464
0.555723
0.545445
0.535617
0.526185
0.517174
0.508349
0.50011
0.491184
0.483991
0.472719
0.466304
0.438812
0.0275856
0.0635999
0.0878763
0.106326
0.121994
0.13591
0.148492
0.16005
0.170859
0.181262
0.191708
0.202466
0.213574
0.225285
0.238703
0.256203
0.275588
0.293659
0.31056
0.326999
0.343895
0.36228
0.386985
0.413837
0.442257
0.471846
0.502534
0.534249
0.566882
0.6003
0.634397
0.669041
0.704126
0.739526
0.775146
0.810882
0.846663
0.882407
0.918064
0.953574
0.988908
1.02403
1.05891
1.09355
1.12793
1.16203
1.19587
1.22943
1.26271
1.29571
1.32843
1.36086
1.39301
1.42487
1.45643
1.48769
1.51862
1.54923
1.5795
1.6094
1.63894
1.66807
1.69679
1.72508
1.75291
1.78026
1.80712
1.83346
1.85928
1.88456
1.90928
1.93339
1.95688
1.97974
2.00196
2.02356
2.04453
2.06489
2.08464
2.10383
2.12247
2.14061
2.15827
2.17551
2.19235
2.20887
2.22509
2.2411
2.25695
2.27274
2.28849
2.30422
2.31994
2.33561
2.35122
2.36669
2.38199
2.39726
2.41395
2.43082
2.44623
2.46403
2.47979
2.4974
2.51244
2.52861
2.5424
2.55608
2.57075
2.58437
2.59852
2.61091
2.62205
2.63432
2.64513
2.65568
2.66232
2.67197
2.67809
2.68022
2.68396
2.68599
2.68824
2.68523
2.68011
2.67249
2.66231
2.64952
2.63408
2.61556
2.59396
2.56929
2.5416
2.51095
2.47744
2.4412
2.40248
2.3615
2.31849
2.27369
2.22735
2.17966
2.13081
2.08138
2.03151
1.98104
1.93093
1.88092
1.8311
1.78172
1.73299
1.6851
1.63815
1.592
1.54618
1.50142
1.45801
1.41608
1.37539
1.3358
1.29755
1.26079
1.22548
1.19149
1.15885
1.12759
1.09767
1.06904
1.0417
1.01558
0.990651
0.966837
0.944089
0.92228
0.901507
0.881155
0.862622
0.841933
0.827303
0.786814
0.0496429
0.0971535
0.126332
0.148305
0.167034
0.183962
0.199828
0.215144
0.230365
0.245933
0.262214
0.279432
0.297807
0.317641
0.33937
0.363236
0.388403
0.414212
0.440612
0.467905
0.496577
0.527235
0.560444
0.595603
0.632329
0.670397
0.709662
0.749975
0.791209
0.833249
0.87598
0.919285
0.963048
1.00715
1.0515
1.09599
1.14054
1.18509
1.22957
1.27394
1.31816
1.3622
1.40604
1.44965
1.49303
1.53615
1.57902
1.62163
1.66397
1.70605
1.74785
1.78937
1.83061
1.87155
1.9122
1.95253
1.99254
2.03222
2.07153
2.11047
2.14901
2.18714
2.22481
2.26201
2.2987
2.33486
2.37046
2.40546
2.43983
2.47355
2.50659
2.53891
2.57049
2.6013
2.63134
2.66057
2.689
2.71662
2.74342
2.76942
2.79462
2.81904
2.8427
2.86563
2.88784
2.9094
2.93031
2.95064
2.97043
2.98973
3.0086
3.02704
3.04507
3.06269
3.07991
3.09676
3.11325
3.12952
3.14576
3.16175
3.17757
3.19364
3.20899
3.22445
3.2391
3.25381
3.26791
3.28186
3.29597
3.30927
3.32287
3.33531
3.34697
3.35872
3.36924
3.37896
3.3872
3.39488
3.40073
3.40298
3.40454
3.40478
3.40305
3.39802
3.39013
3.37916
3.36496
3.34734
3.32618
3.30129
3.27262
3.24017
3.20397
3.16413
3.12078
3.0741
3.02435
2.97179
2.91668
2.85929
2.79991
2.73879
2.67623
2.61277
2.54907
2.4853
2.42175
2.35844
2.29553
2.23323
2.1718
2.11142
2.05225
1.99432
1.93761
1.88233
1.82864
1.77667
1.72615
1.67674
1.62894
1.58292
1.53866
1.4959
1.45476
1.41532
1.3775
1.34125
1.30659
1.27343
1.24175
1.21148
1.18255
1.15487
1.12849
1.10307
1.07939
1.05538
1.03751
1.00507
0.0745593
0.132181
0.166571
0.192494
0.21462
0.234746
0.253836
0.272543
0.291389
0.310807
0.331147
0.352684
0.375632
0.400162
0.426413
0.454407
0.483944
0.514827
0.547026
0.580667
0.615975
0.653158
0.692251
0.733082
0.77546
0.819219
0.864204
0.910285
0.957356
1.0053
1.054
1.10334
1.15321
1.20349
1.25408
1.3049
1.35587
1.40692
1.45799
1.50904
1.56002
1.6109
1.66164
1.71223
1.76265
1.81288
1.8629
1.91271
1.9623
2.01167
2.0608
2.10968
2.15832
2.20669
2.25479
2.30261
2.35012
2.39732
2.44418
2.49068
2.53679
2.58248
2.62773
2.67249
2.71674
2.76042
2.80351
2.84597
2.88774
2.92878
2.96906
3.00854
3.04716
3.0849
3.12171
3.15757
3.19245
3.22632
3.25917
3.29098
3.32174
3.35145
3.38011
3.40773
3.43433
3.45992
3.48453
3.50819
3.53093
3.55281
3.57386
3.59411
3.61357
3.63227
3.65024
3.66752
3.68417
3.70026
3.71589
3.73109
3.74591
3.76038
3.77429
3.78785
3.80089
3.81362
3.82592
3.83789
3.8496
3.8608
3.87175
3.88191
3.89134
3.90027
3.90824
3.9153
3.92113
3.92556
3.92771
3.92752
3.92634
3.92319
3.9176
3.90903
3.89735
3.88232
3.86373
3.84136
3.81504
3.78463
3.75005
3.71128
3.66836
3.6214
3.57054
3.51598
3.45798
3.39682
3.33278
3.26616
3.19729
3.12659
3.05453
2.98163
2.90846
2.83529
2.76238
2.68986
2.61791
2.54678
2.47669
2.40785
2.34041
2.27448
2.21014
2.1475
2.08666
2.02771
1.97058
1.91516
1.86159
1.80997
1.76025
1.71194
1.66541
1.62075
1.57783
1.53661
1.49715
1.45935
1.42319
1.3886
1.35554
1.32394
1.29381
1.26503
1.23802
1.2118
1.19083
1.16135
0.100515
0.166977
0.206967
0.237097
0.262727
0.285984
0.308013
0.329567
0.35122
0.373438
0.396611
0.421046
0.446967
0.474523
0.503808
0.534846
0.567604
0.602035
0.638136
0.67595
0.715546
0.756952
0.80014
0.845018
0.891466
0.939358
0.988571
1.03899
1.09049
1.14296
1.19629
1.25035
1.30504
1.36026
1.41592
1.47192
1.52821
1.58471
1.64135
1.6981
1.75489
1.81169
1.86847
1.92518
1.98182
2.03836
2.09477
2.15105
2.20718
2.26315
2.31894
2.37456
2.42998
2.48519
2.54019
2.59496
2.64947
2.70371
2.75765
2.81128
2.86455
2.91743
2.96989
3.02188
3.07337
3.1243
3.17461
3.22427
3.27321
3.32137
3.3687
3.41514
3.46064
3.50513
3.54856
3.59087
3.63203
3.67198
3.71069
3.74811
3.78422
3.819
3.85244
3.88451
3.91522
3.94457
3.97258
3.99926
4.02464
4.04876
4.07166
4.09335
4.11388
4.13328
4.1516
4.16888
4.18519
4.20061
4.21522
4.22907
4.24222
4.25466
4.26637
4.27744
4.28786
4.29773
4.30701
4.31572
4.3239
4.33153
4.33868
4.34513
4.35069
4.3554
4.35937
4.36238
4.36364
4.36324
4.36139
4.35782
4.35253
4.3451
4.33514
4.32229
4.30626
4.28679
4.26363
4.23654
4.20533
4.16984
4.12996
4.08568
4.03701
3.98405
3.92693
3.86588
3.80112
3.73295
3.66168
3.58769
3.51142
3.43335
3.35396
3.27379
3.1933
3.11286
3.03271
2.95307
2.87415
2.79618
2.71941
2.64404
2.57024
2.49813
2.42783
2.35944
2.29303
2.22868
2.16636
2.10603
2.04774
1.99153
1.9374
1.88515
1.83485
1.78654
1.73999
1.69515
1.65218
1.61094
1.57141
1.53358
1.49738
1.46279
1.42983
1.39845
1.36894
1.34093
1.31733
1.28712
0.126068
0.200566
0.246045
0.280362
0.309436
0.335677
0.360383
0.384399
0.408355
0.432757
0.458025
0.484496
0.512427
0.542002
0.573338
0.606499
0.641511
0.678377
0.717102
0.757693
0.800154
0.844466
0.890583
0.938427
0.987903
1.03891
1.09133
1.14506
1.19998
1.25599
1.31298
1.37085
1.42948
1.48879
1.54869
1.60911
1.66995
1.73116
1.79268
1.85443
1.91638
1.97847
2.04067
2.10294
2.16524
2.22755
2.28985
2.35212
2.41433
2.47647
2.53854
2.60051
2.66237
2.7241
2.7857
2.84714
2.90841
2.96947
3.03031
3.09089
3.15118
3.21114
3.27073
3.32989
3.38857
3.44672
3.50427
3.56116
3.61731
3.67266
3.72712
3.78063
3.8331
3.88446
3.93463
3.98353
4.0311
4.07727
4.12196
4.16513
4.20671
4.24668
4.28498
4.32159
4.35649
4.38966
4.42111
4.45084
4.47886
4.50521
4.52991
4.55301
4.57453
4.59451
4.61302
4.6301
4.64583
4.66028
4.67354
4.68567
4.69671
4.70669
4.71563
4.7236
4.73068
4.73694
4.74233
4.74683
4.75051
4.75351
4.75584
4.75752
4.75799
4.75716
4.75563
4.75304
4.74902
4.74364
4.73675
4.72819
4.71778
4.70523
4.6902
4.67236
4.65142
4.62709
4.59909
4.56717
4.5311
4.49071
4.44588
4.39654
4.34272
4.28447
4.22192
4.15528
4.08479
4.01076
3.93357
3.85366
3.77151
3.6876
3.60243
3.51651
3.43026
3.34407
3.25822
3.17294
3.0885
3.00512
2.92305
2.84249
2.76362
2.68658
2.6115
2.53847
2.46758
2.39886
2.33233
2.26799
2.20583
2.14586
2.08808
2.0324
1.97883
1.92738
1.87792
1.83041
1.78485
1.74101
1.69892
1.65857
1.61992
1.58298
1.54776
1.51431
1.48281
1.4532
1.42736
1.39681
0.150423
0.231936
0.282526
0.320818
0.353163
0.382205
0.409366
0.435568
0.46149
0.487674
0.514571
0.542549
0.571906
0.602866
0.635588
0.670179
0.706701
0.745185
0.785643
0.828073
0.872457
0.918761
0.966931
1.01689
1.06857
1.12186
1.17667
1.23289
1.29044
1.34919
1.40907
1.46997
1.5318
1.59447
1.6579
1.72201
1.78673
1.85198
1.9177
1.98383
2.05032
2.11711
2.18415
2.25141
2.31885
2.38644
2.45415
2.52194
2.58982
2.65774
2.7257
2.79368
2.86166
2.92963
2.99757
3.06545
3.13327
3.20098
3.26857
3.33599
3.40321
3.47019
3.53687
3.60319
3.6691
3.73452
3.79938
3.8636
3.92709
3.98978
4.05155
4.11231
4.17198
4.23044
4.28759
4.34334
4.39759
4.45024
4.5012
4.55039
4.59774
4.64316
4.68661
4.72803
4.76737
4.80461
4.83973
4.87272
4.90358
4.93234
4.95901
4.98363
5.00623
5.02686
5.04557
5.06243
5.0775
5.09087
5.10261
5.11278
5.12146
5.12869
5.13447
5.13889
5.14208
5.14424
5.14515
5.14472
5.14305
5.14057
5.13715
5.13273
5.12708
5.12031
5.11251
5.10355
5.0933
5.08171
5.06865
5.05397
5.03748
5.01893
4.99804
4.97449
4.94802
4.91831
4.88507
4.84804
4.80699
4.7617
4.71204
4.65791
4.5993
4.53625
4.46888
4.39738
4.32203
4.24318
4.16122
4.07661
3.98982
3.90134
3.81167
3.72125
3.63053
3.53987
3.44957
3.35991
3.27115
3.18354
3.09731
3.01267
2.9298
2.84886
2.76996
2.69322
2.61872
2.54649
2.47655
2.40892
2.34359
2.28055
2.21979
2.16126
2.10492
2.0508
1.99882
1.94893
1.9011
1.85518
1.81115
1.7689
1.72834
1.68955
1.65254
1.61739
1.58426
1.55323
1.52549
1.49444
0.17291
0.260326
0.315467
0.357372
0.392725
0.424353
0.453768
0.481952
0.509621
0.537347
0.565603
0.594787
0.62523
0.657191
0.69087
0.726411
0.763907
0.803413
0.844956
0.888536
0.934133
0.981711
1.03122
1.08258
1.13574
1.19059
1.24706
1.30505
1.36449
1.42526
1.4873
1.55051
1.61481
1.68012
1.74637
1.81347
1.88135
1.94995
2.01921
2.08905
2.15942
2.23027
2.30155
2.37322
2.44522
2.51754
2.59012
2.66296
2.73601
2.80927
2.8827
2.9563
3.03004
3.10391
3.17788
3.25194
3.32606
3.40021
3.47436
3.54848
3.62251
3.69641
3.77012
3.84358
3.91672
3.98945
4.06169
4.13334
4.20431
4.27448
4.34374
4.41198
4.47907
4.54489
4.60931
4.6722
4.73345
4.79292
4.8505
4.90607
4.95954
5.0108
5.05976
5.10635
5.15051
5.19218
5.23132
5.26791
5.30193
5.33339
5.36231
5.38871
5.41263
5.43409
5.45317
5.46992
5.48442
5.49674
5.50695
5.51513
5.52134
5.52573
5.52815
5.52874
5.52762
5.52504
5.52086
5.5151
5.5079
5.49939
5.48959
5.47849
5.46608
5.45239
5.43748
5.42131
5.40384
5.38502
5.36476
5.34294
5.3194
5.29393
5.26631
5.23627
5.20352
5.16779
5.1288
5.08626
5.03992
4.98957
4.93503
4.8762
4.81302
4.74553
4.67385
4.59818
4.51881
4.43607
4.35038
4.26215
4.17185
4.07995
3.98692
3.89318
3.79915
3.70519
3.61161
3.51871
3.42676
3.336
3.24667
3.15897
3.07308
2.98916
2.90735
2.82775
2.75044
2.67547
2.60286
2.53262
2.46476
2.39926
2.3361
2.27525
2.21667
2.16035
2.10625
2.05434
2.00457
1.95682
1.91106
1.86721
1.82521
1.785
1.7466
1.71009
1.67561
1.64332
1.61395
1.58226
0.192992
0.285185
0.344222
0.389291
0.427328
0.461291
0.492761
0.522759
0.552025
0.581149
0.610619
0.640852
0.672199
0.704945
0.739321
0.775497
0.813598
0.853699
0.895845
0.940047
0.986293
1.03455
1.08478
1.13693
1.19091
1.24667
1.30413
1.36321
1.42384
1.48593
1.54942
1.61422
1.68027
1.7475
1.81582
1.88518
1.95551
2.02674
2.0988
2.17165
2.24521
2.31944
2.39428
2.4697
2.54563
2.62206
2.69894
2.77624
2.85394
2.93201
3.01044
3.08919
3.16826
3.24762
3.32726
3.40715
3.48726
3.56757
3.64804
3.72862
3.80928
3.88996
3.97059
4.05111
4.13142
4.21144
4.29108
4.37021
4.44874
4.52652
4.60342
4.67931
4.75404
4.82746
4.89942
4.96975
5.03831
5.10495
5.1695
5.23184
5.29181
5.3493
5.40419
5.45637
5.50576
5.55227
5.59584
5.63642
5.674
5.70854
5.74008
5.7686
5.79414
5.81674
5.83644
5.85332
5.86744
5.87887
5.88771
5.89402
5.89776
5.89911
5.89811
5.89487
5.88949
5.88207
5.87264
5.86127
5.84806
5.83311
5.81649
5.79825
5.77844
5.75713
5.73437
5.71021
5.68464
5.65766
5.62924
5.5993
5.56774
5.53442
5.49914
5.46171
5.42187
5.37937
5.33395
5.28534
5.23328
5.17754
5.11794
5.05436
4.98675
4.91513
4.83963
4.76042
4.67778
4.59202
4.50352
4.41268
4.31992
4.22569
4.13039
4.03446
3.93825
3.84213
3.7464
3.65136
3.5573
3.46446
3.37306
3.2833
3.19535
3.10937
3.02552
2.9439
2.86458
2.78762
2.71304
2.64086
2.57109
2.50372
2.43873
2.37609
2.31576
2.25771
2.20193
2.14838
2.09701
2.04775
2.00053
1.9553
1.91202
1.87065
1.8312
1.79362
1.75804
1.72464
1.69388
1.66152
0.210288
0.306175
0.368417
0.416159
0.456513
0.492534
0.525848
0.557499
0.58824
0.618664
0.649267
0.680468
0.712629
0.746047
0.780971
0.81759
0.856048
0.896443
0.938836
0.983252
1.0297
1.07815
1.12858
1.18094
1.23518
1.29124
1.34906
1.40858
1.46974
1.53247
1.59671
1.6624
1.72947
1.79788
1.86754
1.93842
2.01043
2.08354
2.15767
2.23277
2.30879
2.38567
2.46337
2.54183
2.62102
2.70089
2.78142
2.86257
2.94431
3.02662
3.10948
3.19287
3.27676
3.36115
3.446
3.53131
3.61703
3.70314
3.7896
3.87638
3.96341
4.05063
4.13799
4.22539
4.31276
4.39999
4.48696
4.57356
4.65965
4.74509
4.82973
4.91339
4.99592
5.07713
5.15684
5.23486
5.31101
5.38511
5.45697
5.52641
5.59327
5.65738
5.71859
5.77677
5.83179
5.88356
5.93198
5.97698
6.01852
6.05656
6.0911
6.12212
6.14966
6.17373
6.19439
6.2117
6.22572
6.23654
6.24423
6.24871
6.25022
6.24881
6.24457
6.23757
6.2279
6.21567
6.20095
6.18382
6.16439
6.14276
6.11903
6.09328
6.06561
6.03613
6.00492
5.97207
5.93765
5.90169
5.86423
5.82525
5.78472
5.74257
5.69869
5.65292
5.60508
5.55496
5.50233
5.44698
5.38863
5.32708
5.26215
5.19373
5.12176
5.04627
4.96734
4.88515
4.79991
4.71191
4.62147
4.52895
4.43473
4.3392
4.24273
4.1457
4.04845
3.95129
3.85451
3.75845
3.66338
3.56953
3.4771
3.38627
3.29723
3.21013
3.12512
3.04232
2.9618
2.88361
2.80779
2.73435
2.66331
2.59467
2.52841
2.4645
2.40292
2.34362
2.28659
2.23181
2.17921
2.12875
2.08038
2.03404
1.9897
1.94734
1.90697
1.86859
1.83214
1.7978
1.76587
1.73288
0.224568
0.323153
0.387913
0.43782
0.480103
0.517883
0.552811
0.58594
0.618027
0.649661
0.681331
0.713451
0.746377
0.780409
0.815798
0.852744
0.891401
0.931882
0.974263
1.01859
1.06487
1.11312
1.16331
1.21541
1.26939
1.32521
1.38282
1.44218
1.50324
1.56596
1.63028
1.69617
1.76357
1.83244
1.90272
1.97436
2.04733
2.12156
2.197
2.27361
2.35134
2.43013
2.50995
2.59074
2.67247
2.75511
2.8386
2.92294
3.00808
3.09401
3.1807
3.26814
3.35631
3.44519
3.53477
3.62501
3.71589
3.80738
3.89944
3.99203
4.08508
4.17855
4.27235
4.36641
4.46061
4.55486
4.64903
4.74298
4.83657
4.92963
5.02199
5.11346
5.20384
5.29294
5.38054
5.46642
5.55037
5.63216
5.71158
5.78841
5.86245
5.9335
6.00138
6.06592
6.12696
6.18436
6.23802
6.28783
6.33373
6.37565
6.41358
6.44749
6.47739
6.5033
6.52527
6.54334
6.55757
6.56807
6.5748
6.57787
6.57745
6.57355
6.56626
6.55567
6.54186
6.52493
6.50498
6.48209
6.45639
6.42797
6.39696
6.36346
6.32763
6.28957
6.24943
6.20734
6.16341
6.11775
6.07045
6.02158
5.97118
5.91927
5.86582
5.81075
5.75397
5.69532
5.63465
5.57182
5.50657
5.43872
5.36814
5.29472
5.21841
5.13921
5.05719
4.97246
4.88522
4.79568
4.70411
4.61081
4.51609
4.42028
4.32371
4.22669
4.12951
4.03245
3.93575
3.83977
3.74481
3.65104
3.55864
3.46779
3.37864
3.29134
3.20609
3.12298
3.04209
2.96347
2.88714
2.81314
2.74149
2.6722
2.60526
2.54064
2.47831
2.41825
2.36043
2.30483
2.2514
2.2001
2.15089
2.10373
2.05859
2.01546
1.97435
1.93528
1.89817
1.86305
1.83015
1.79662
0.235734
0.336127
0.402756
0.454331
0.498145
0.53736
0.573644
0.608053
0.641335
0.674068
0.706728
0.739711
0.773361
0.807965
0.843768
0.880969
0.919724
0.960154
1.00234
1.04635
1.09221
1.13994
1.18953
1.24098
1.29427
1.34938
1.40628
1.46495
1.52536
1.58748
1.65129
1.71676
1.78383
1.85249
1.92269
1.99441
2.06761
2.14225
2.21829
2.29568
2.37439
2.45438
2.5356
2.61802
2.7016
2.7863
2.87209
2.95895
3.04685
3.13575
3.22565
3.31653
3.40839
3.5012
3.59494
3.6896
3.78513
3.88151
3.9787
4.07665
4.17532
4.27464
4.37452
4.47487
4.5756
4.67659
4.7777
4.87878
4.97967
5.08019
5.18015
5.27934
5.37754
5.47451
5.57001
5.66381
5.75563
5.84524
5.93236
6.01676
6.09819
6.17641
6.25121
6.32237
6.38972
6.45307
6.51228
6.56723
6.61781
6.66396
6.70561
6.74275
6.77535
6.80343
6.82702
6.84617
6.86093
6.87137
6.87754
6.87953
6.87745
6.87133
6.86125
6.84729
6.82954
6.8081
6.78305
6.7545
6.72256
6.68734
6.64899
6.60763
6.56342
6.51652
6.4671
6.41533
6.36137
6.30541
6.24759
6.18806
6.12698
6.06443
6.00049
5.93517
5.86854
5.80046
5.73086
5.65961
5.58632
5.51123
5.43425
5.35534
5.27443
5.19151
5.10661
5.0198
4.93117
4.84088
4.74912
4.65608
4.56201
4.46714
4.37174
4.27603
4.18027
4.08465
3.98932
3.8947
3.801
3.70844
3.61716
3.52733
3.43909
3.35256
3.26801
3.1855
3.1051
3.02685
2.95079
2.87695
2.80539
2.73611
2.66909
2.60433
2.5418
2.48146
2.42332
2.36734
2.31349
2.26173
2.21203
2.16436
2.1187
2.07505
2.03342
1.99381
1.95617
1.92044
1.88678
1.85286
0.243791
0.345219
0.413114
0.46588
0.510828
0.551146
0.58851
0.62397
0.658265
0.691956
0.725497
0.759264
0.793577
0.828708
0.864882
0.902289
0.941079
0.981372
1.02326
1.06681
1.11206
1.15905
1.20779
1.2583
1.31057
1.36461
1.4204
1.47795
1.53725
1.59829
1.66107
1.7256
1.79179
1.85965
1.92917
2.00034
2.07314
2.14755
2.22353
2.30106
2.3801
2.46062
2.54259
2.62598
2.71075
2.79687
2.88432
2.97307
3.06309
3.15436
3.24682
3.34053
3.43548
3.53163
3.62898
3.72748
3.8271
3.92783
4.02961
4.13242
4.2362
4.34087
4.44636
4.55257
4.65939
4.76671
4.87437
4.98222
5.09009
5.19778
5.30507
5.41174
5.51754
5.62222
5.7255
5.8271
5.92674
6.02412
6.11896
6.21096
6.29984
6.38532
6.46716
6.54509
6.6189
6.68838
6.75336
6.81366
6.86917
6.91977
6.96541
7.00602
7.04159
7.0721
7.09759
7.11809
7.13364
7.14432
7.15019
7.15135
7.14792
7.13985
7.12724
7.11016
7.08869
7.06293
7.03294
6.99886
6.96077
6.91881
6.87311
6.82383
6.77113
6.71521
6.65624
6.59446
6.53006
6.46328
6.39436
6.32353
6.251
6.17705
6.10176
6.02529
5.94725
5.86817
5.7882
5.7074
5.62624
5.5444
5.46157
5.3777
5.29273
5.20661
5.11934
5.03093
4.94143
4.8509
4.75946
4.66724
4.5744
4.48109
4.38751
4.29382
4.2002
4.1068
4.01354
3.92146
3.83036
3.74031
3.65145
3.56389
3.47774
3.39311
3.31024
3.22927
3.15025
3.07323
2.99823
2.92531
2.85454
2.78594
2.7195
2.65519
2.59301
2.53293
2.47496
2.41906
2.36522
2.3134
2.26358
2.21574
2.16987
2.12597
2.08404
2.0441
2.00606
1.9699
1.93569
1.90154
0.248824
0.350627
0.419244
0.472753
0.518454
0.559541
0.597694
0.633955
0.669051
0.703522
0.737798
0.772236
0.807131
0.842727
0.879229
0.916806
0.955597
0.995714
1.03725
1.08026
1.12482
1.17096
1.21872
1.26811
1.31916
1.37191
1.42636
1.48249
1.54032
1.5999
1.66127
1.72448
1.78942
1.8561
1.92453
1.99473
2.06667
2.14035
2.21577
2.29289
2.3717
2.45218
2.53431
2.61807
2.70342
2.79035
2.87883
2.96885
3.06037
3.15338
3.24785
3.34384
3.44132
3.54025
3.64061
3.74237
3.8455
3.94995
4.05573
4.1628
4.27109
4.38052
4.49102
4.6025
4.71485
4.82794
4.94161
5.05571
5.17005
5.28442
5.39859
5.51231
5.62532
5.73734
5.84806
5.95718
6.06437
6.16931
6.27166
6.3711
6.46731
6.55997
6.64878
6.73346
6.81374
6.88938
6.96016
7.02589
7.08641
7.1416
7.19134
7.23558
7.27425
7.30736
7.33491
7.35693
7.37346
7.38456
7.39031
7.39083
7.38631
7.37651
7.36158
7.34158
7.31658
7.28665
7.25189
7.21237
7.16823
7.11956
7.06653
7.00928
6.948
6.88291
6.8142
6.74212
6.66693
6.58893
6.50844
6.42574
6.34104
6.25432
6.16623
6.07713
5.988
5.89876
5.80936
5.71987
5.63082
5.54133
5.4518
5.3623
5.2728
5.18325
5.0936
5.00382
4.91387
4.82375
4.73344
4.64299
4.55244
4.46187
4.37135
4.28096
4.1908
4.10095
4.01127
3.92247
3.83456
3.74764
3.6618
3.57716
3.49378
3.41173
3.3316
3.25324
3.17663
3.10181
3.02881
2.95763
2.88842
2.8212
2.75599
2.69277
2.63152
2.57224
2.51494
2.45961
2.40623
2.35477
2.30522
2.25756
2.2118
2.16794
2.12598
2.08592
2.04768
2.01129
1.97674
1.94256
0.25103
0.3526
0.421451
0.475299
0.521395
0.562928
0.60158
0.638386
0.674056
0.709104
0.743922
0.778889
0.814267
0.850266
0.887061
0.924794
0.963588
1.00354
1.04473
1.08724
1.13112
1.17643
1.22321
1.27147
1.32124
1.3726
1.42565
1.48032
1.53666
1.5947
1.65446
1.71594
1.77919
1.84426
1.91119
1.97998
2.05067
2.12324
2.1977
2.27404
2.35227
2.43236
2.5143
2.59808
2.68367
2.77106
2.86023
2.95115
3.04381
3.13819
3.23426
3.33199
3.43139
3.53247
3.6352
3.73957
3.84554
3.95307
4.0622
4.17285
4.28494
4.3984
4.51317
4.62918
4.74629
4.86439
4.98332
5.10293
5.223
5.34334
5.46369
5.5838
5.70338
5.82212
5.9397
6.05579
6.17002
6.28203
6.39146
6.49794
6.60111
6.70062
6.79612
6.88729
6.97382
7.05544
7.13188
7.20292
7.26837
7.32806
7.38187
7.4297
7.47148
7.50718
7.5368
7.56037
7.57791
7.58947
7.59515
7.59514
7.58964
7.57824
7.56111
7.53829
7.50985
7.47584
7.43635
7.39145
7.34127
7.28589
7.22549
7.1602
7.09026
7.01586
6.93724
6.85467
6.76842
6.67848
6.58542
6.48978
6.39212
6.29349
6.19382
6.09345
5.99332
5.89274
5.79249
5.6929
5.5943
5.49668
5.40021
5.30497
5.21097
5.11815
5.02644
4.93573
4.84592
4.75688
4.66852
4.58074
4.49348
4.4067
4.32036
4.23444
4.14894
4.06387
3.97921
3.8952
3.81195
3.72955
3.64808
3.56764
3.48826
3.40995
3.33319
3.25797
3.18432
3.11226
3.04182
2.97303
2.90617
2.84115
2.77793
2.71649
2.65684
2.59893
2.54284
2.48858
2.43613
2.38547
2.33659
2.28949
2.24418
2.20066
2.15894
2.11899
2.08079
2.04441
2.00978
1.97578
0.250669
0.351663
0.420288
0.474046
0.520142
0.561755
0.600567
0.637612
0.673593
0.709014
0.744256
0.779691
0.815518
0.851914
0.889025
0.926967
0.965839
1.00572
1.04669
1.08881
1.13213
1.17674
1.22271
1.27
1.31867
1.36877
1.42033
1.47337
1.52803
1.58436
1.64246
1.70233
1.76403
1.8276
1.89308
1.96051
2.02992
2.10132
2.17474
2.25019
2.32768
2.4072
2.48875
2.57231
2.65787
2.74541
2.83493
2.9264
3.01979
3.1151
3.2123
3.31137
3.41231
3.51512
3.61978
3.72626
3.83454
3.94456
4.05629
4.16972
4.28481
4.40147
4.51968
4.63932
4.76029
4.88248
5.00574
5.12991
5.2548
5.38018
5.50582
5.63144
5.75674
5.88139
6.00506
6.12736
6.24792
6.36635
6.48224
6.59518
6.70478
6.81064
6.91237
7.00962
7.10203
7.18928
7.27107
7.34714
7.41726
7.48124
7.5389
7.59012
7.63482
7.67295
7.70448
7.72942
7.74781
7.75967
7.76509
7.76449
7.7579
7.7448
7.72535
7.69958
7.66754
7.62927
7.58486
7.53437
7.4779
7.41556
7.3475
7.27385
7.19472
7.11029
7.02089
6.92686
6.82863
6.72706
6.62226
6.51482
6.40563
6.29422
6.1816
6.06839
5.95529
5.84265
5.73106
5.621
5.51289
5.40698
5.30351
5.2026
5.1043
5.00856
4.91526
4.82424
4.7353
4.64821
4.56275
4.47869
4.39585
4.31405
4.23312
4.15292
4.07336
3.99434
3.91583
3.83788
3.76056
3.68392
3.60804
3.53297
3.45876
3.38551
3.3134
3.24253
3.17294
3.10468
3.03778
2.97221
2.90826
2.84591
2.78515
2.72598
2.6684
2.61242
2.55814
2.50552
2.45452
2.40514
2.35738
2.31121
2.2667
2.22384
2.18263
2.14309
2.10523
2.06912
2.03464
2.00105
0.24833
0.34815
0.416083
0.46937
0.515158
0.556607
0.595397
0.632556
0.668772
0.704524
0.740163
0.775973
0.812181
0.848955
0.886422
0.924681
0.963814
1.00388
1.04494
1.08703
1.13021
1.17452
1.22
1.2667
1.31468
1.36403
1.41477
1.46698
1.52073
1.5761
1.63317
1.69199
1.75264
1.81519
1.87968
1.94617
2.0147
2.08529
2.15793
2.23274
2.30971
2.38883
2.47009
2.5535
2.63904
2.72669
2.81643
2.90824
3.0021
3.09798
3.19587
3.29574
3.39758
3.50137
3.6071
3.71475
3.82428
3.93568
4.04891
4.16395
4.28077
4.39931
4.5195
4.64128
4.76456
4.88925
5.01521
5.14229
5.27031
5.39907
5.52832
5.6578
5.78718
5.91615
6.04433
6.17133
6.29676
6.42018
6.54117
6.65927
6.77405
6.88508
6.99193
7.0942
7.1915
7.28347
7.36976
7.45007
7.52413
7.5917
7.65259
7.70664
7.75373
7.79378
7.82676
7.85266
7.87149
7.88328
7.88806
7.88669
7.8788
7.8638
7.84184
7.81294
7.77711
7.73442
7.68487
7.62853
7.56548
7.49583
7.41971
7.33733
7.24903
7.15507
7.05566
6.95127
6.84254
6.72926
6.61222
6.4921
6.36956
6.2451
6.11947
5.99346
5.86786
5.74337
5.6207
5.50049
5.3833
5.26955
5.15957
5.05358
4.95163
4.85371
4.75964
4.6692
4.58209
4.49796
4.41646
4.33723
4.25995
4.18429
4.10994
4.03666
3.96421
3.89243
3.82118
3.75044
3.6802
3.61047
3.54128
3.47268
3.40471
3.33744
3.27099
3.20546
3.14089
3.07736
3.01489
2.95355
2.89344