/*--------------------------------*- C++ -*----------------------------------*\
  =========                 |
  \\      /  F ield         | OpenFOAM: The Open Source CFD Toolbox
   \\    /   O peration     | Website:  https://openfoam.org
    \\  /    A nd           | Version:  8
     \\/     M anipulation  |
\*---------------------------------------------------------------------------*/
FoamFile
{
    version     2.0;
    format      ascii;
    class       volScalarField;
    location    "100";
    object      nut;
}
// * * * * * * * * * * * * * * * * * * * * * * * * * * * * * * * * * * * * * //

dimensions      [0 2 -1 0 0 0 0];

internalField   nonuniform List<scalar> 
12225
(
4.14924e-05
3.93417e-05
3.74815e-05
3.54351e-05
3.37808e-05
3.24256e-05
3.15037e-05
3.09147e-05
3.09201e-05
3.10966e-05
3.15799e-05
3.2104e-05
3.31744e-05
3.38524e-05
3.50785e-05
3.60652e-05
3.66878e-05
3.97247e-05
0.000332259
0.000215134
0.000179291
0.000157641
0.000146234
0.000138164
0.000132678
0.000131734
0.000129404
0.000130171
0.000128933
0.000129562
0.000128546
0.000128692
0.000127949
0.000127768
0.000127495
0.000126529
0.000668776
0.000450541
0.000355823
0.000309746
0.000275337
0.000251005
0.000231732
0.000217178
0.000202607
0.000192049
0.000182523
0.000175034
0.000169285
0.000163356
0.000160196
0.000155023
0.000153626
0.000148955
0.000801645
0.00069157
0.000572672
0.000499945
0.000449456
0.000411863
0.000380813
0.000355866
0.000333989
0.000314578
0.000298292
0.000281312
0.000270191
0.000255574
0.000247851
0.000235414
0.000229737
0.000219049
0.000839616
0.000810134
0.000740802
0.000676305
0.000624005
0.000581266
0.000545907
0.000514407
0.000489506
0.00046421
0.000445773
0.000423728
0.000409685
0.000390309
0.000379323
0.000362238
0.000353744
0.000337712
0.000850345
0.000843264
0.000819563
0.000786476
0.000750836
0.000715795
0.000685784
0.000656007
0.000632524
0.000607332
0.000588884
0.00056696
0.000552002
0.000532636
0.000520228
0.000502847
0.000492638
0.000475817
0.000851581
0.000851014
0.000843301
0.000833456
0.000817146
0.000796902
0.000777882
0.000756654
0.000738871
0.000719017
0.000703427
0.000685404
0.000671881
0.000655544
0.000643851
0.00062879
0.000619005
0.000603814
0.000851584
0.000851811
0.000850043
0.000847451
0.000841408
0.000833746
0.000824806
0.000813396
0.000802789
0.000790396
0.000779636
0.000767396
0.000757253
0.000745514
0.00073622
0.000724983
0.00071689
0.000705058
0.000851675
0.000851527
0.000851019
0.000850338
0.000848877
0.000846165
0.000843025
0.000838285
0.000833387
0.000827323
0.000821164
0.00081469
0.000808323
0.000801345
0.000795088
0.000788029
0.000782168
0.000774393
0.000851756
0.000851384
0.000851045
0.000850631
0.000850248
0.000849364
0.000848404
0.000846772
0.000844946
0.000842512
0.000839897
0.000836757
0.000833738
0.000830067
0.000826861
0.000822765
0.000819728
0.000815009
0.000851785
0.000851357
0.000851013
0.000850613
0.00085033
0.000849903
0.000849525
0.000848925
0.000848298
0.000847384
0.000846453
0.000845156
0.000843962
0.000842311
0.000840943
0.000838958
0.000837553
0.000835241
0.000851789
0.000851359
0.000850996
0.000850605
0.000850292
0.000849938
0.000849645
0.000849278
0.000848952
0.000848499
0.000848091
0.000847496
0.000846983
0.000846223
0.000845616
0.000844687
0.000844019
0.000842925
0.000851786
0.000851363
0.000850986
0.000850604
0.000850269
0.000849926
0.000849629
0.000849312
0.00084904
0.000848725
0.000848458
0.00084812
0.000847836
0.000847455
0.000847145
0.000846711
0.000846372
0.000845884
0.000851783
0.000851364
0.000850978
0.000850602
0.000850256
0.000849917
0.000849607
0.000849299
0.000849021
0.000848739
0.000848486
0.000848221
0.000847985
0.000847731
0.000847504
0.000847253
0.00084703
0.00084678
0.000851781
0.000851364
0.000850973
0.000850598
0.000850247
0.000849909
0.000849592
0.000849287
0.000849
0.000848723
0.000848463
0.000848211
0.000847975
0.000847745
0.000847528
0.000847317
0.000847118
0.000846923
0.00085178
0.000851363
0.000850969
0.000850594
0.000850239
0.000849901
0.000849581
0.000849275
0.000848985
0.000848708
0.000848445
0.000848193
0.000847953
0.000847724
0.000847506
0.000847297
0.000847099
0.000846909
0.000851779
0.000851363
0.000850967
0.000850591
0.000850234
0.000849895
0.000849573
0.000849266
0.000848974
0.000848696
0.000848431
0.000848178
0.000847936
0.000847706
0.000847486
0.000847276
0.000847075
0.000846883
0.000851779
0.000851362
0.000850965
0.000850589
0.000850231
0.000849891
0.000849568
0.00084926
0.000848967
0.000848687
0.000848421
0.000848167
0.000847924
0.000847692
0.000847471
0.000847259
0.000847057
0.000846864
0.000851779
0.000851362
0.000850965
0.000850588
0.00085023
0.00084989
0.000849566
0.000849257
0.000848963
0.000848683
0.000848416
0.000848161
0.000847918
0.000847685
0.000847463
0.00084725
0.000847047
0.000846852
0.000851779
0.000851362
0.000850966
0.000850589
0.000850232
0.000849892
0.000849568
0.00084926
0.000848967
0.000848687
0.00084842
0.000848165
0.000847921
0.000847688
0.000847465
0.000847252
0.000847048
0.000846853
0.000851779
0.000851363
0.000850967
0.000850592
0.000850235
0.000849897
0.000849574
0.000849268
0.000848974
0.000848696
0.000848426
0.000848172
0.000847923
0.000847688
0.000847456
0.000847238
0.00084702
0.000846815
0.000851778
0.000851366
0.000850968
0.000850599
0.00085024
0.000849908
0.000849581
0.000849275
0.000848966
0.000848673
0.000848367
0.000848075
0.00084776
0.000847461
0.000847129
0.000846819
0.000846466
0.000846146
0.000851773
0.000851376
0.000850971
0.000850615
0.000850241
0.00084989
0.000849479
0.000849055
0.000848531
0.000847981
0.000847305
0.000846609
0.000845773
0.000844947
0.000843965
0.000843042
0.000841934
0.000840959
0.000851768
0.000851415
0.000850964
0.000850548
0.000849861
0.000848967
0.000847612
0.000845978
0.000843909
0.000841642
0.000838963
0.000836225
0.000833131
0.000830132
0.000826787
0.000823709
0.000820221
0.000817222
0.000851859
0.000851379
0.000850196
0.000848243
0.000844471
0.000839356
0.000832769
0.000825665
0.000817972
0.000810024
0.000801637
0.000793651
0.000785364
0.000777746
0.000769793
0.00076276
0.000755196
0.000748882
0.000852108
0.000847667
0.000839903
0.000827144
0.000808715
0.000789647
0.000769988
0.000751422
0.000733327
0.000716917
0.00070097
0.000686819
0.000672884
0.000660732
0.000648457
0.000638032
0.000627065
0.000618149
0.000843241
0.000822505
0.000775192
0.000726454
0.000684908
0.000649852
0.000618482
0.00059203
0.000568414
0.000548336
0.000529737
0.000514034
0.000498821
0.000486086
0.000473297
0.00046281
0.000451754
0.000442947
0.000795683
0.00066824
0.000570633
0.000509904
0.000465618
0.000431186
0.000404167
0.000382492
0.000364231
0.00034909
0.000335986
0.000325097
0.000314573
0.000306289
0.00029804
0.000291448
0.000284389
0.000279043
0.000501314
0.000348357
0.000292675
0.000259181
0.000236329
0.000221179
0.00021163
0.000203861
0.000198576
0.000195083
0.000192235
0.000190377
0.000188598
0.000187453
0.000186185
0.00018549
0.000184577
0.000184166
7.27386e-05
7.02253e-05
6.79544e-05
6.56135e-05
6.3383e-05
6.1276e-05
5.94945e-05
5.79549e-05
5.67108e-05
5.57026e-05
5.49767e-05
5.44165e-05
5.41073e-05
5.38779e-05
5.3891e-05
5.39266e-05
5.40875e-05
5.4315e-05
3.7506e-06
4.92097e-05
7.35945e-05
9.49864e-05
0.000114174
0.000131606
0.000147768
0.000162941
0.000177879
0.000194153
0.000215213
0.000233771
0.000245267
0.000255033
0.00027684
0.000360119
0.000422294
0.000432403
0.000409234
0.000367208
0.000298403
4.81418e-05
5.10492e-05
5.31782e-05
5.5507e-05
5.77376e-05
5.9936e-05
6.21071e-05
6.42527e-05
6.63661e-05
6.84445e-05
7.04796e-05
7.24701e-05
7.44096e-05
7.62989e-05
7.81344e-05
7.99182e-05
8.16483e-05
8.33279e-05
8.49562e-05
8.65369e-05
8.80698e-05
8.95586e-05
9.10038e-05
9.24095e-05
9.37763e-05
9.51069e-05
9.64025e-05
9.7665e-05
9.88957e-05
0.000100096
0.000101267
0.00010241
0.000103525
0.000104613
0.000105674
0.00010671
0.00010772
0.000108704
0.000109663
0.000110596
0.000111504
0.000112385
0.000113242
0.000114071
0.000114876
0.000115654
0.000116408
0.000117135
0.000117837
0.000118511
0.000119159
0.000119777
0.00012037
0.000120934
0.000121474
0.000121986
0.000122475
0.000122939
0.000123383
0.000123803
0.000124207
0.000124591
0.000124962
0.000125317
0.000125664
0.000125999
0.000126331
0.000126658
0.000126984
0.000127307
0.000127625
0.000127933
0.000128213
0.000128432
0.00012851
0.000128279
0.000127025
0.000128922
0.000131704
0.000128452
0.00013212
0.000129151
0.000133076
0.000130248
0.000132884
0.000131787
0.000130828
0.00013227
0.00013203
0.000134022
0.000133634
0.000131387
0.00013238
0.000133207
0.00013478
0.000132773
0.000134079
0.000133201
0.000132701
0.000133996
0.000133492
0.000133482
0.000133129
0.000132807
0.000132399
0.000131936
0.00013142
0.00013084
0.000130186
0.000129459
0.000128658
0.000127778
0.000126823
0.000125831
0.000124733
0.000123561
0.000122314
0.000120992
0.000119608
0.000118182
0.000116647
0.000115008
0.000113568
0.000111556
0.000108948
0.00010756
0.000106407
0.000105266
0.0001041
0.00010292
0.000101724
0.00010052
9.93526e-05
9.81577e-05
9.68817e-05
9.56624e-05
9.44999e-05
9.33127e-05
9.21149e-05
9.09168e-05
8.9737e-05
8.85873e-05
8.74602e-05
8.63527e-05
8.52718e-05
8.42185e-05
8.31916e-05
8.21927e-05
8.12219e-05
8.02787e-05
7.93612e-05
7.84701e-05
7.7591e-05
7.67535e-05
7.58517e-05
7.51249e-05
7.39476e-05
7.33039e-05
7.09666e-05
8.50125e-06
7.40244e-05
0.000149684
0.000208803
0.000252738
0.000285204
0.000308885
0.000326462
0.000340251
0.000351785
0.000361462
0.000368751
0.000373625
0.000377609
0.000383059
0.000392005
0.000399403
0.000400311
0.000392748
0.000375689
0.000349273
0.000315198
0.000320043
0.000331082
0.000343736
0.000357188
0.000371316
0.000386193
0.00040179
0.000418026
0.000434793
0.000451994
0.000469508
0.00048723
0.000505045
0.00052287
0.000540611
0.000558202
0.000575574
0.000592683
0.00060948
0.000625938
0.000642022
0.000657714
0.000673054
0.000688048
0.000702692
0.000717001
0.000730975
0.000744631
0.000757971
0.00077101
0.000783752
0.000796208
0.00080838
0.000820276
0.000831894
0.000843237
0.000854302
0.000865089
0.000875592
0.000885805
0.000895723
0.000905337
0.000914641
0.000923626
0.000932287
0.000940617
0.000948615
0.000956284
0.000963608
0.000970532
0.000977056
0.000983165
0.000988866
0.000994145
0.000999013
0.00100346
0.00100751
0.00101117
0.00101446
0.00101739
0.00102
0.00102231
0.00102437
0.00102619
0.00102784
0.00102935
0.00103078
0.00103221
0.00103374
0.00103543
0.00103738
0.00103965
0.00104237
0.00104568
0.00104979
0.00105496
0.00106186
0.001065
0.0010654
0.00107287
0.00107468
0.00108282
0.00108453
0.00109278
0.00109806
0.00110489
0.00111543
0.00111164
0.00112065
0.00112934
0.00112656
0.00113925
0.00114066
0.00114949
0.00115114
0.00115633
0.00116337
0.00116111
0.00116827
0.00117316
0.00118021
0.00118433
0.00118804
0.00119107
0.00119342
0.00119505
0.00119603
0.00119595
0.00119488
0.00119282
0.00118972
0.00118558
0.00118053
0.00117447
0.00116748
0.00115959
0.00115083
0.00114126
0.00113101
0.00112003
0.00110806
0.0010962
0.00108355
0.00106592
0.00104656
0.00102642
0.00100594
0.00098531
0.000964697
0.000944217
0.000923873
0.000903763
0.000883993
0.000864484
0.000845429
0.000827175
0.000809392
0.000791876
0.000774793
0.000758225
0.000742163
0.000726483
0.000711218
0.000696424
0.000682068
0.000668141
0.000654646
0.000641571
0.000628879
0.000616586
0.000604549
0.000592954
0.000581291
0.000570192
0.000558603
0.000546356
0.000527029
0.000474987
1.53149e-05
0.000107008
0.000209574
0.000293282
0.000358243
0.000407396
0.000443615
0.000469393
0.000487034
0.000498971
0.000507758
0.000514853
0.000521391
0.000528583
0.000537629
0.000549231
0.000562547
0.000575994
0.000588192
0.000598603
0.000608097
0.000619815
0.000639244
0.000663146
0.000689495
0.000717543
0.000747696
0.000779686
0.000812805
0.000846762
0.000881359
0.00091643
0.000951796
0.000987263
0.00102263
0.0010578
0.00109266
0.00112712
0.00116109
0.00119451
0.00122734
0.00125954
0.0012911
0.001322
0.00135227
0.0013819
0.0014109
0.00143929
0.00146708
0.00149429
0.00152093
0.00154702
0.00157257
0.00159759
0.00162209
0.00164609
0.00166957
0.00169256
0.00171504
0.00173701
0.00175847
0.00177941
0.00179982
0.00181968
0.00183899
0.00185773
0.00187588
0.00189343
0.00191036
0.00192666
0.00194231
0.00195728
0.00197155
0.00198512
0.00199797
0.0020101
0.00202151
0.00203219
0.00204217
0.00205144
0.00206005
0.002068
0.00207533
0.00208209
0.00208833
0.00209409
0.00209944
0.00210444
0.0021092
0.0021138
0.00211839
0.00212305
0.00212791
0.00213306
0.00213861
0.00214463
0.00215111
0.00215785
0.00216424
0.00216877
0.00217353
0.00218091
0.00218651
0.00219446
0.00220055
0.00220962
0.0022178
0.00222662
0.00223572
0.00223958
0.00225039
0.00225942
0.00226469
0.00227656
0.00228307
0.0022932
0.00230065
0.00230828
0.00231673
0.00232086
0.00232823
0.00233491
0.00234159
0.00234654
0.00235026
0.0023526
0.0023535
0.00235281
0.00235048
0.00234627
0.00234018
0.00233215
0.00232216
0.00231022
0.00229642
0.00228075
0.00226329
0.00224411
0.00222332
0.00220102
0.00217737
0.00215243
0.00212613
0.0020991
0.00207104
0.00203935
0.00200533
0.00197002
0.00193405
0.00189778
0.00186146
0.00182529
0.00178937
0.0017539
0.00171921
0.00168522
0.00165226
0.00162099
0.00159048
0.0015601
0.0015306
0.00150212
0.0014746
0.00144756
0.00142122
0.00139572
0.00137094
0.00134686
0.00132349
0.00130079
0.0012787
0.0012572
0.0012361
0.00121555
0.00119494
0.00117495
0.00115399
0.001133
0.0011068
0.00104053
2.29859e-05
0.000138345
0.00026349
0.000367113
0.000449081
0.000512124
0.000559622
0.000594742
0.000620453
0.000639526
0.00065439
0.000667065
0.000679314
0.0006926
0.000708072
0.000726406
0.000747602
0.00077113
0.000796324
0.000822819
0.000850905
0.000881685
0.000916073
0.000953643
0.000993865
0.00103645
0.00108059
0.00112583
0.00117216
0.00121934
0.00126714
0.00131549
0.00136427
0.00141338
0.00146238
0.00151106
0.00155929
0.00160694
0.00165394
0.00170022
0.00174574
0.00179046
0.00183435
0.00187742
0.00191967
0.00196109
0.0020017
0.0020415
0.00208053
0.00211879
0.0021563
0.00219307
0.00222913
0.00226448
0.00229914
0.00233312
0.00236643
0.00239906
0.00243102
0.0024623
0.0024929
0.00252281
0.00255202
0.00258052
0.00260828
0.00263529
0.00266153
0.00268698
0.00271162
0.00273542
0.00275837
0.00278043
0.0028016
0.00282185
0.00284117
0.00285956
0.002877
0.00289351
0.00290909
0.00292374
0.0029375
0.00295039
0.00296244
0.0029737
0.00298422
0.00299405
0.00300327
0.00301194
0.00302017
0.00302804
0.00303568
0.00304318
0.00305065
0.00305815
0.00306574
0.00307343
0.00308112
0.00308862
0.00309562
0.003102
0.00310865
0.00311604
0.00312312
0.00313083
0.00313827
0.00314657
0.00315469
0.00316296
0.00317096
0.00317787
0.00318717
0.00319572
0.00320344
0.00321291
0.00322069
0.00323035
0.00323963
0.00324725
0.00325389
0.00325835
0.00326453
0.0032699
0.00327444
0.00327748
0.00327894
0.00327865
0.00327667
0.00327268
0.00326653
0.00325806
0.00324719
0.00323385
0.00321801
0.00319969
0.00317893
0.00315578
0.00313031
0.00310263
0.00307287
0.00304115
0.00300764
0.0029725
0.00293581
0.00289787
0.00285856
0.00281678
0.00277297
0.00272783
0.0026819
0.00263558
0.00258917
0.00254288
0.00249689
0.00245141
0.00240673
0.00236289
0.00232007
0.00227866
0.00223843
0.00219966
0.00216255
0.00212692
0.00209278
0.00205881
0.00202583
0.00199404
0.00196315
0.00193309
0.00190395
0.00187566
0.00184808
0.00182117
0.00179473
0.00176885
0.00174304
0.00171768
0.00169161
0.00166475
0.00163955
0.0015716
3.09348e-05
0.000166013
0.000312209
0.000434137
0.000532005
0.000608497
0.000667551
0.0007128
0.000747546
0.000774772
0.000797139
0.000816954
0.000836163
0.000856333
0.000878641
0.000903832
0.000932204
0.00096369
0.000998038
0.00103503
0.00107466
0.00111709
0.00116244
0.00121053
0.0012611
0.00131381
0.00136826
0.00142412
0.00148117
0.00153921
0.00159801
0.00165723
0.00171661
0.0017759
0.00183488
0.00189347
0.00195153
0.00200897
0.0020657
0.00212163
0.00217673
0.00223095
0.00228426
0.00233665
0.00238811
0.00243865
0.00248827
0.00253698
0.0025848
0.00263174
0.00267781
0.00272304
0.00276744
0.00281102
0.0028538
0.00289579
0.00293699
0.00297742
0.00301706
0.00305593
0.00309401
0.00313129
0.00316776
0.00320341
0.00323822
0.00327216
0.00330522
0.00333737
0.00336858
0.00339882
0.00342808
0.00345632
0.00348351
0.00350965
0.00353471
0.00355866
0.00358152
0.00360325
0.00362388
0.00364339
0.00366182
0.00367916
0.00369546
0.00371075
0.00372507
0.00373847
0.00375101
0.00376276
0.0037738
0.0037842
0.00379407
0.00380348
0.00381252
0.00382125
0.0038297
0.00383787
0.00384572
0.00385312
0.00386001
0.00386647
0.00387286
0.0038793
0.00388558
0.00389192
0.00389819
0.00390467
0.00391113
0.00391754
0.00392371
0.00392978
0.00393678
0.00394342
0.00394975
0.00395717
0.00396507
0.00397272
0.00397856
0.00398319
0.00398765
0.00399142
0.00399511
0.00399798
0.00399978
0.00400013
0.00399882
0.00399563
0.00399054
0.00398327
0.00397364
0.00396148
0.0039467
0.0039292
0.00390894
0.00388592
0.00386016
0.00383172
0.00380067
0.00376713
0.00373124
0.00369314
0.00365304
0.0036111
0.00356746
0.00352232
0.00347565
0.00342707
0.00337681
0.00332532
0.00327305
0.00322036
0.00316753
0.00311483
0.00306244
0.00301058
0.00295949
0.00290929
0.00286012
0.00281223
0.00276561
0.00272039
0.00267675
0.002635
0.00259552
0.00255748
0.00252099
0.00248609
0.00245212
0.00241895
0.00238692
0.00235588
0.00232555
0.00229588
0.00226672
0.00223807
0.00220963
0.00218153
0.00215308
0.00212365
0.00209764
0.00203166
3.874e-05
0.000191084
0.000356042
0.000494907
0.000607432
0.000696951
0.000767434
0.000822929
0.000867001
0.000902812
0.000933151
0.000960435
0.000986697
0.00101357
0.00104229
0.00107369
0.00110823
0.00114609
0.00118724
0.00123156
0.00127896
0.00132933
0.00138255
0.00143843
0.0014967
0.00155705
0.00161916
0.00168272
0.00174745
0.00181309
0.00187937
0.00194602
0.00201279
0.00207947
0.00214585
0.00221182
0.00227724
0.002342
0.00240603
0.00246923
0.00253157
0.00259299
0.00265347
0.00271299
0.00277153
0.00282911
0.00288571
0.00294135
0.00299604
0.0030498
0.00310263
0.00315457
0.00320562
0.00325579
0.00330511
0.00335359
0.00340122
0.00344802
0.00349399
0.00353913
0.00358342
0.00362687
0.00366946
0.00371116
0.00375197
0.00379185
0.00383078
0.00386873
0.00390567
0.00394156
0.00397638
0.00401009
0.00404266
0.00407406
0.00410426
0.00413323
0.00416095
0.00418741
0.0042126
0.0042365
0.00425912
0.00428046
0.00430055
0.0043194
0.00433704
0.00435351
0.00436885
0.00438313
0.00439639
0.0044087
0.00442014
0.00443078
0.00444067
0.00444988
0.00445843
0.00446635
0.00447362
0.00448021
0.00448613
0.00449146
0.00449637
0.00450095
0.00450515
0.00450908
0.00451279
0.00451635
0.00451979
0.00452308
0.0045259
0.00452856
0.00453227
0.004537
0.0045404
0.00454331
0.00454641
0.00454933
0.00455135
0.00455287
0.00455396
0.00455456
0.00455471
0.00455407
0.0045524
0.00454943
0.00454493
0.0045387
0.00453057
0.0045203
0.00450771
0.00449263
0.00447492
0.00445447
0.00443122
0.00440515
0.00437626
0.0043446
0.00431023
0.00427326
0.00423383
0.00419209
0.00414822
0.00410241
0.00405481
0.00400559
0.00395482
0.00390245
0.00384866
0.00379376
0.00373809
0.00368197
0.00362568
0.00356946
0.00351352
0.00345808
0.00340335
0.00334948
0.00329661
0.0032449
0.00319443
0.00314532
0.00309769
0.00305174
0.00300769
0.00296581
0.0029262
0.00288877
0.00285314
0.00281901
0.0027863
0.00275442
0.00272312
0.00269246
0.00266225
0.00263251
0.00260303
0.00257385
0.00254458
0.00251457
0.00248749
0.00242885
4.61668e-05
0.000213266
0.00039468
0.000548977
0.000675051
0.000776888
0.000858401
0.000923906
0.000977164
0.00102146
0.00105966
0.00109423
0.00112725
0.0011604
0.00119497
0.00123189
0.00127174
0.00131482
0.00136125
0.00141098
0.0014639
0.00151987
0.00157868
0.0016401
0.00170384
0.00176961
0.0018371
0.00190602
0.00197606
0.00204696
0.00211845
0.00219029
0.00226225
0.00233412
0.00240573
0.00247694
0.00254761
0.00261765
0.00268697
0.00275549
0.00282315
0.00288991
0.00295575
0.00302062
0.00308454
0.00314748
0.00320945
0.00327045
0.0033305
0.00338961
0.0034478
0.00350507
0.00356146
0.00361696
0.0036716
0.00372539
0.00377834
0.00383045
0.00388172
0.00393216
0.00398175
0.00403048
0.00407835
0.00412533
0.00417139
0.00421652
0.00426067
0.00430382
0.00434592
0.00438694
0.00442683
0.00446555
0.00450306
0.00453932
0.00457428
0.00460791
0.00464017
0.00467102
0.00470045
0.00472841
0.00475491
0.00477993
0.00480347
0.00482553
0.00484613
0.00486528
0.00488301
0.00489936
0.00491437
0.00492808
0.00494057
0.00495187
0.00496204
0.00497112
0.00497917
0.00498621
0.00499225
0.00499732
0.00500144
0.00500468
0.00500715
0.00500896
0.00501004
0.00501057
0.00501068
0.00501033
0.00500965
0.00500896
0.00500793
0.0050065
0.00500545
0.0050043
0.00500257
0.00500057
0.00499842
0.00499602
0.0049932
0.00499006
0.00498661
0.00498281
0.00497859
0.00497376
0.0049681
0.0049614
0.00495344
0.00494402
0.00493293
0.00491994
0.00490485
0.00488748
0.00486765
0.00484524
0.00482016
0.00479235
0.00476179
0.00472851
0.00469257
0.00465405
0.00461306
0.00456975
0.00452429
0.00447683
0.00442756
0.00437662
0.00432414
0.00427022
0.00421502
0.00415877
0.00410177
0.00404429
0.00398658
0.00392889
0.00387141
0.00381438
0.00375798
0.00370238
0.00364772
0.00359414
0.00354172
0.00349057
0.00344083
0.00339263
0.00334612
0.00330149
0.0032591
0.00321958
0.00318262
0.00314778
0.00311472
0.00308297
0.00305222
0.00302209
0.0029922
0.00296268
0.00293341
0.00290438
0.00287538
0.00284596
0.00281844
0.00276753
5.3017e-05
0.000232379
0.000427884
0.000595938
0.000734402
0.000847759
0.000939763
0.0010149
0.00107704
0.00112956
0.00117535
0.0012169
0.00125632
0.00129531
0.00133521
0.00137701
0.00142138
0.00146873
0.00151925
0.00157297
0.00162982
0.00168963
0.00175222
0.00181732
0.00188467
0.00195397
0.00202493
0.00209726
0.00217068
0.00224493
0.00231975
0.00239491
0.00247021
0.00254546
0.00262049
0.00269515
0.00276934
0.00284294
0.00291587
0.00298805
0.00305944
0.00312997
0.00319962
0.00326837
0.00333619
0.00340309
0.00346906
0.00353411
0.00359824
0.00366147
0.00372381
0.00378527
0.00384589
0.00390567
0.00396462
0.00402276
0.0040801
0.00413665
0.0041924
0.00424735
0.0043015
0.00435484
0.00440734
0.00445899
0.00450976
0.00455961
0.00460851
0.00465642
0.00470329
0.00474907
0.00479371
0.00483715
0.00487934
0.00492022
0.00495974
0.00499783
0.00503444
0.00506952
0.00510302
0.00513491
0.00516514
0.00519368
0.00522051
0.00524562
0.00526898
0.00529062
0.00531052
0.00532872
0.00534523
0.00536008
0.00537332
0.00538498
0.00539511
0.00540376
0.00541096
0.00541676
0.00542119
0.00542429
0.0054261
0.00542669
0.0054261
0.00542459
0.00542183
0.00541818
0.00541408
0.0054097
0.0054044
0.00539854
0.00539209
0.00538524
0.00537822
0.00537091
0.0053632
0.00535519
0.00534697
0.00533857
0.00532997
0.00532123
0.00531237
0.00530336
0.00529414
0.00528457
0.00527451
0.00526377
0.00525216
0.00523948
0.00522551
0.00521004
0.00519282
0.00517366
0.00515236
0.00512876
0.00510275
0.00507423
0.00504316
0.00500954
0.0049734
0.00493479
0.00489381
0.00485056
0.00480518
0.00475782
0.00470864
0.00465778
0.00460541
0.00455165
0.00449668
0.00444069
0.00438393
0.00432665
0.00426906
0.00421141
0.00415391
0.00409675
0.00404016
0.00398429
0.00392928
0.00387524
0.00382227
0.0037705
0.00372003
0.00367099
0.00362351
0.00357771
0.00353386
0.00349267
0.0034548
0.00341958
0.00338648
0.00335503
0.00332485
0.0032956
0.00326698
0.00323866
0.00321046
0.0031824
0.00315438
0.00312618
0.003099
0.00305483
5.91329e-05
0.000248351
0.000455591
0.000635628
0.000785235
0.000909181
0.00101101
0.00109527
0.00116589
0.00122627
0.00127932
0.00132752
0.00137297
0.00141738
0.00146211
0.00150821
0.00155641
0.00160719
0.00166081
0.00171737
0.00177684
0.0018391
0.00190397
0.00197121
0.00204057
0.00211179
0.00218458
0.00225868
0.00233383
0.00240978
0.00248629
0.00256317
0.0026402
0.00271723
0.0027941
0.00287066
0.00294682
0.00302247
0.00309752
0.0031719
0.00324557
0.00331847
0.00339056
0.00346183
0.00353226
0.00360184
0.00367057
0.00373846
0.0038055
0.00387173
0.00393714
0.00400176
0.00406561
0.0041287
0.00419106
0.00425269
0.00431361
0.00437381
0.00443331
0.00449211
0.00455019
0.00460754
0.00466414
0.00471997
0.00477499
0.00482918
0.00488247
0.00493483
0.00498619
0.00503651
0.0050857
0.00513371
0.00518045
0.00522586
0.00526986
0.00531237
0.00535332
0.00539263
0.00543023
0.00546606
0.00550005
0.00553216
0.00556233
0.00559052
0.0056167
0.00564085
0.00566295
0.005683
0.00570101
0.00571699
0.00573096
0.00574295
0.005753
0.00576114
0.00576743
0.0057719
0.0057746
0.00577559
0.00577491
0.00577264
0.00576856
0.00576297
0.00575634
0.00574882
0.00574047
0.00573081
0.00572012
0.00570856
0.00569621
0.00568323
0.00566975
0.00565581
0.00564145
0.00562677
0.00561188
0.00559686
0.00558181
0.00556678
0.00555184
0.005537
0.00552225
0.0055075
0.00549267
0.00547761
0.00546216
0.00544613
0.00542932
0.0054115
0.00539242
0.00537185
0.00534956
0.00532539
0.00529916
0.00527075
0.00524008
0.00520713
0.00517189
0.00513439
0.00509466
0.00505277
0.00500883
0.00496294
0.00491526
0.00486591
0.00481504
0.00476282
0.00470938
0.00465491
0.00459964
0.00454377
0.00448751
0.00443109
0.00437471
0.00431857
0.00426291
0.00420789
0.00415363
0.00410023
0.0040478
0.00399645
0.00394631
0.00389751
0.00385015
0.00380434
0.00376028
0.00371848
0.00368026
0.00364507
0.00361224
0.00358125
0.00355173
0.00352334
0.00349582
0.00346891
0.00344242
0.00341588
0.00338929
0.00336261
0.00333634
0.00329777
6.44055e-05
0.000261211
0.000477878
0.000668051
0.000827444
0.0009609
0.00107174
0.00116448
0.00124304
0.00131082
0.0013707
0.00142514
0.0014762
0.0015256
0.00157469
0.00162455
0.00167595
0.00172942
0.00178529
0.00184371
0.00190472
0.00196824
0.00203412
0.00210217
0.00217218
0.0022439
0.00231709
0.0023915
0.0024669
0.00254307
0.00261981
0.00269692
0.00277422
0.00285156
0.00292881
0.00300583
0.00308253
0.00315881
0.00323458
0.00330979
0.00338438
0.0034583
0.00353153
0.00360404
0.00367581
0.00374685
0.00381714
0.0038867
0.00395554
0.00402366
0.00409109
0.00415786
0.00422397
0.00428946
0.00435434
0.00441863
0.00448234
0.00454548
0.00460805
0.00467005
0.00473147
0.0047923
0.00485253
0.00491211
0.00497102
0.0050292
0.00508662
0.00514321
0.00519889
0.00525361
0.00530728
0.00535981
0.00541112
0.0054611
0.00550967
0.00555672
0.00560215
0.00564586
0.00568776
0.00572775
0.00576574
0.00580166
0.00583542
0.00586695
0.00589621
0.00592314
0.0059477
0.00596987
0.00598963
0.00600697
0.00602191
0.00603446
0.00604464
0.00605248
0.00605803
0.00606134
0.00606246
0.00606146
0.0060584
0.006053
0.0060456
0.00603663
0.00602628
0.00601449
0.00600105
0.00598613
0.00596987
0.00595241
0.00593388
0.00591444
0.00589423
0.00587338
0.00585201
0.00583025
0.00580825
0.00578618
0.00576417
0.00574234
0.00572082
0.00569966
0.00567892
0.00565859
0.00563863
0.00561896
0.00559945
0.00557993
0.00556022
0.00554011
0.00551931
0.00549757
0.00547464
0.00545033
0.00542444
0.00539679
0.00536725
0.00533577
0.00530233
0.00526688
0.00522942
0.00518995
0.00514854
0.00510527
0.00506021
0.00501351
0.00496529
0.00491571
0.00486488
0.00481298
0.00476021
0.00470675
0.0046528
0.00459857
0.00454424
0.00449003
0.00443621
0.00438294
0.00433032
0.00427842
0.00422736
0.00417727
0.0041283
0.00408058
0.00403419
0.00398925
0.00394592
0.00390466
0.00386684
0.00383217
0.00379992
0.00376959
0.00374082
0.0037133
0.0036868
0.00366112
0.00363608
0.0036114
0.00358649
0.00356146
0.00353643
0.00350251
6.87661e-05
0.000271055
0.000494908
0.000693296
0.000861002
0.00100265
0.00112166
0.00122208
0.00130789
0.00138243
0.00144857
0.0015087
0.00156487
0.00161874
0.00167167
0.00172472
0.0017787
0.00183418
0.00189153
0.00195096
0.00201255
0.00207629
0.00214207
0.00220976
0.00227917
0.00235011
0.00242236
0.00249573
0.00257001
0.00264502
0.00272058
0.00279652
0.00287269
0.00294894
0.00302516
0.00310124
0.00317708
0.0032526
0.00332772
0.00340239
0.00347655
0.00355017
0.00362322
0.00369567
0.00376753
0.00383878
0.00390943
0.00397949
0.00404896
0.00411788
0.00418626
0.00425414
0.00432154
0.00438849
0.00445501
0.00452113
0.00458685
0.00465219
0.00471716
0.00478175
0.00484596
0.00490978
0.00497319
0.00503614
0.00509861
0.00516054
0.00522188
0.00528255
0.00534248
0.00540158
0.00545975
0.0055169
0.0055729
0.00562765
0.00568101
0.00573288
0.0057831
0.00583157
0.00587815
0.00592271
0.00596514
0.00600531
0.00604314
0.00607851
0.00611133
0.00614154
0.00616906
0.00619384
0.00621585
0.00623505
0.00625144
0.00626501
0.00627578
0.00628377
0.00628902
0.00629157
0.00629148
0.00628884
0.00628354
0.00627566
0.00626552
0.0062534
0.00623926
0.00622306
0.00620489
0.00618487
0.00616313
0.00613983
0.00611514
0.00608922
0.00606226
0.00603443
0.0060059
0.00597688
0.00594756
0.00591816
0.00588887
0.00585989
0.00583139
0.00580353
0.00577643
0.00575015
0.00572472
0.00570012
0.0056763
0.00565308
0.00563032
0.00560789
0.00558542
0.00556264
0.00553929
0.00551515
0.00549001
0.0054636
0.00543572
0.00540635
0.00537541
0.00534279
0.00530841
0.00527224
0.00523427
0.00519452
0.00515305
0.00510994
0.00506531
0.00501931
0.004972
0.00492352
0.00487412
0.00482392
0.00477311
0.00472186
0.00467036
0.00461884
0.00456762
0.00451687
0.00446663
0.00441696
0.00436797
0.00431982
0.0042727
0.00422675
0.00418204
0.00413867
0.00409684
0.00405701
0.00402043
0.00398677
0.00395542
0.00392594
0.00389801
0.00387139
0.00384588
0.0038213
0.00379752
0.00377434
0.00375119
0.00372777
0.00370413
0.0036741
7.21886e-05
0.000278058
0.000507001
0.000711754
0.000886368
0.00103483
0.00116069
0.00126773
0.00135984
0.0014403
0.0015119
0.001577
0.00163758
0.00169525
0.00175137
0.00180696
0.00186284
0.0019196
0.00197765
0.00203725
0.00209852
0.00216149
0.00222613
0.00229233
0.00235996
0.00242887
0.0024989
0.00256989
0.00264169
0.00271416
0.00278717
0.00286056
0.00293419
0.00300795
0.00308173
0.00315545
0.00322903
0.0033024
0.00337548
0.00344821
0.00352056
0.00359251
0.00366402
0.00373509
0.00380572
0.00387591
0.00394567
0.00401502
0.00408396
0.00415253
0.00422075
0.00428867
0.00435635
0.00442381
0.00449109
0.0045582
0.00462515
0.00469197
0.00475867
0.00482526
0.00489173
0.00495807
0.00502426
0.00509026
0.00515603
0.00522152
0.00528665
0.00535136
0.00541555
0.00547911
0.00554194
0.00560391
0.00566489
0.00572473
0.00578329
0.00584041
0.00589592
0.00594968
0.00600151
0.00605126
0.00609877