/*--------------------------------*- C++ -*----------------------------------*\
  =========                 |
  \\      /  F ield         | OpenFOAM: The Open Source CFD Toolbox
   \\    /   O peration     | Website:  https://openfoam.org
    \\  /    A nd           | Version:  8
     \\/     M anipulation  |
\*---------------------------------------------------------------------------*/
FoamFile
{
    version     2.0;
    format      ascii;
    class       volScalarField;
    location    "100";
    object      p;
}
// * * * * * * * * * * * * * * * * * * * * * * * * * * * * * * * * * * * * * //

dimensions      [0 2 -2 0 0 0 0];

internalField   nonuniform List<scalar> 
12225
(
-2.18113
-4.36953
-5.46885
-5.78856
-5.9686
-6.13602
-6.26559
-6.35819
-6.43144
-6.49441
-6.54873
-6.59606
-6.63539
-6.66651
-6.6877
-6.68641
-6.68002
-6.52898
-5.34463
-6.1128
-6.27265
-6.17942
-6.16568
-6.23198
-6.30751
-6.37071
-6.42701
-6.48012
-6.52917
-6.57273
-6.61056
-6.64124
-6.66471
-6.67049
-6.67976
-6.63179
-5.7458
-5.73055
-5.85724
-5.93465
-6.02837
-6.14701
-6.2522
-6.33456
-6.40315
-6.46434
-6.5191
-6.56702
-6.60879
-6.64348
-6.67217
-6.68882
-6.71355
-6.72476
-5.62388
-5.56673
-5.80763
-5.96506
-6.06564
-6.17031
-6.26603
-6.34366
-6.40931
-6.46846
-6.52201
-6.56956
-6.61179
-6.64826
-6.6806
-6.707
-6.74293
-6.78754
-5.61358
-5.63778
-5.86519
-6.00588
-6.08833
-6.17889
-6.26823
-6.34362
-6.40824
-6.46678
-6.52027
-6.56846
-6.61206
-6.65123
-6.68795
-6.72301
-6.76775
-6.82724
-5.67162
-5.72034
-5.89399
-6.01701
-6.09741
-6.18381
-6.27006
-6.34437
-6.40861
-6.46693
-6.5206
-6.56957
-6.6146
-6.65637
-6.697
-6.73852
-6.78904
-6.85403
-5.73206
-5.77609
-5.91065
-6.02613
-6.10884
-6.19162
-6.27385
-6.34646
-6.41005
-6.46805
-6.5218
-6.57148
-6.61787
-6.66196
-6.70583
-6.7519
-6.80576
-6.8715
-5.78573
-5.82315
-5.93253
-6.04004
-6.12208
-6.2004
-6.27825
-6.34891
-6.41177
-6.46941
-6.5232
-6.57355
-6.62117
-6.66723
-6.71362
-6.76259
-6.81786
-6.88188
-5.83563
-5.86855
-5.95893
-6.05616
-6.13536
-6.20956
-6.28332
-6.35186
-6.41381
-6.471
-6.52477
-6.57562
-6.62426
-6.67182
-6.71994
-6.77044
-6.82567
-6.88678
-5.88289
-5.91194
-5.98695
-6.0735
-6.14892
-6.21943
-6.28934
-6.3555
-6.41631
-6.47292
-6.52651
-6.57766
-6.627
-6.67553
-6.72459
-6.77553
-6.82974
-6.88748
-5.92745
-5.95276
-6.0155
-6.0921
-6.16309
-6.23004
-6.29627
-6.35989
-6.41934
-6.4752
-6.52845
-6.57964
-6.62931
-6.6783
-6.72762
-6.77818
-6.83074
-6.88508
-5.96573
-5.9879
-6.04169
-6.11004
-6.17657
-6.24022
-6.30326
-6.3645
-6.42253
-6.47754
-6.53029
-6.58127
-6.63093
-6.67988
-6.72891
-6.7786
-6.82935
-6.88071
-6.00115
-6.02068
-6.06717
-6.12817
-6.19018
-6.25059
-6.3106
-6.36949
-6.426
-6.48004
-6.53211
-6.58268
-6.63204
-6.68066
-6.72904
-6.77755
-6.82636
-6.87497
-6.03834
-6.05537
-6.09513
-6.14885
-6.20584
-6.26261
-6.31935
-6.37559
-6.43029
-6.48308
-6.5342
-6.58399
-6.63271
-6.68061
-6.72794
-6.77484
-6.82138
-6.86707
-6.07608
-6.09074
-6.12457
-6.17148
-6.22319
-6.276
-6.32932
-6.38267
-6.43523
-6.48646
-6.53631
-6.58492
-6.63254
-6.67924
-6.7251
-6.77004
-6.81405
-6.85679
-6.11243
-6.12499
-6.15384
-6.19474
-6.24131
-6.29008
-6.33995
-6.39031
-6.44045
-6.48981
-6.53804
-6.58513
-6.63114
-6.6762
-6.72017
-6.76294
-6.80431
-6.84417
-6.14451
-6.15537
-6.18035
-6.21638
-6.25841
-6.3034
-6.35004
-6.39752
-6.44514
-6.49237
-6.53875
-6.584
-6.6281
-6.67109
-6.71293
-6.75334
-6.79215
-6.82924
-6.16794
-6.17763
-6.20001
-6.23269
-6.27141
-6.31347
-6.35751
-6.40257
-6.44794
-6.49308
-6.53753
-6.58085
-6.62292
-6.66375
-6.70333
-6.74141
-6.77782
-6.81242
-6.1758
-6.18505
-6.20648
-6.23791
-6.27536
-6.31613
-6.35884
-6.40254
-6.44649
-6.49011
-6.53298
-6.57462
-6.61489
-6.65376
-6.69128
-6.72724
-6.7615
-6.79397
-6.16053
-6.17041
-6.19327
-6.22664
-6.26601
-6.30818
-6.35179
-6.39598
-6.44016
-6.48363
-6.52607
-6.56701
-6.60645
-6.64425
-6.6806
-6.71521
-6.74811
-6.77921
-6.13424
-6.14515
-6.17069
-6.208
-6.25111
-6.29611
-6.34178
-6.38766
-6.43296
-6.47711
-6.5197
-6.56064
-6.59979
-6.63729
-6.67298
-6.70694
-6.73895
-6.76938
-6.09943
-6.11137
-6.14099
-6.18485
-6.23346
-6.28188
-6.33023
-6.37853
-6.42573
-6.47098
-6.51415
-6.55532
-6.59456
-6.63191
-6.66731
-6.70078
-6.73232
-6.76222
-6.05917
-6.07119
-6.10591
-6.15944
-6.21532
-6.26769
-6.31903
-6.36999
-6.41911
-6.46558
-6.50953
-6.55118
-6.59071
-6.62805
-6.66333
-6.69648
-6.72777
-6.75737
-6.01566
-6.02676
-6.0688
-6.13346
-6.19597
-6.25307
-6.30912
-6.36344
-6.41423
-6.46154
-6.5061
-6.54821
-6.58791
-6.62527
-6.66033
-6.6933
-6.72432
-6.75373
-5.96887
-5.97449
-6.03743
-6.11587
-6.1781
-6.23674
-6.29833
-6.35717
-6.41016
-6.45862
-6.50399
-6.54663
-6.58656
-6.6239
-6.65883
-6.69161
-6.72243
-6.75176
-5.92565
-5.88944
-5.99924
-6.11049
-6.17303
-6.22862
-6.29122
-6.35146
-6.40516
-6.45424
-6.50028
-6.54343
-6.58362
-6.62106
-6.65602
-6.6888
-6.71963
-6.74889
-5.93993
-5.7811
-5.91026
-6.06459
-6.15507
-6.22673
-6.29599
-6.35736
-6.41062
-6.45926
-6.50483
-6.54745
-6.587
-6.62381
-6.65816
-6.69039
-6.72079
-6.74976
-6.06315
-5.88288
-5.89733
-5.96965
-6.05837
-6.15793
-6.24896
-6.32317
-6.38532
-6.44078
-6.49139
-6.53751
-6.57958
-6.61819
-6.65379
-6.68693
-6.71812
-6.74822
-5.77054
-6.36171
-6.45085
-6.32683
-6.27279
-6.30027
-6.34761
-6.3913
-6.43329
-6.47577
-6.51755
-6.55722
-6.59448
-6.62935
-6.6618
-6.69211
-6.72062
-6.74931
-2.78122
-4.54464
-5.54958
-5.84901
-5.99846
-6.14237
-6.25677
-6.3382
-6.40285
-6.46
-6.5115
-6.55786
-6.59985
-6.63823
-6.67339
-6.70526
-6.73385
-6.75756
-8.10129
-8.09933
-8.09749
-8.0994
-8.10317
-8.10779
-8.11332
-8.11938
-8.1254
-8.13095
-8.13626
-8.14212
-8.14881
-8.15543
-8.16116
-8.16733
-8.17714
-8.19077
-8.20801
-8.22705
-8.24249
-8.25538
-8.2745
-8.29932
-8.32624
-8.35564
-8.38759
-8.42195
-8.45862
-8.49729
-8.53774
-8.57952
-8.62232
-8.66566
-8.70915
-8.75236
-8.7949
-8.83639
-8.87652
-8.915
-8.95157
-8.98604
-9.01824
-9.04806
-9.07535
-9.10008
-9.12215
-9.14159
-9.15828
-9.17231
-9.18357
-9.19219
-9.19807
-9.20134
-9.2019
-9.19992
-9.19531
-9.18823
-9.17854
-9.1665
-9.15197
-9.13522
-9.11606
-9.09485
-9.07137
-9.04601
-9.01854
-8.98938
-8.95829
-8.92573
-8.89146
-8.85591
-8.81882
-8.78065
-8.74117
-8.70087
-8.65944
-8.61731
-8.57417
-8.53054
-8.486
-8.44093
-8.39485
-8.34817
-8.30024
-8.25148
-8.20118
-8.14935
-8.09504
-8.03776
-7.9777
-7.91433
-7.84708
-7.7752
-7.69811
-7.61503
-7.52527
-7.42788
-7.32195
-7.20639
-7.08019
-6.94187
-6.78997
-6.62304
-6.43936
-6.2374
-6.01556
-5.77288
-5.50814
-5.22045
-4.90851
-4.57133
-4.20791
-3.81775
-3.40024
-2.95537
-2.48311
-1.98392
-1.45842
-0.9079
-0.333713
0.26233
0.878246
1.51149
2.15922
2.81811
3.48472
4.15537
4.82635
5.49391
6.15442
6.80439
7.44049
8.05972
8.65931
9.23689
9.7904
10.3181
10.8189
11.2919
11.7367
12.1534
12.5424
12.9046
13.2412
13.5533
13.8415
14.1064
14.3489
14.5699
14.7709
14.953
15.1176
15.2659
15.3993
15.519
15.6261
15.7217
15.8069
15.8826
15.9496
16.0089
16.0611
16.107
16.1472
16.1823
16.2129
16.2396
16.2628
16.2833
16.3014
16.318
16.3339
16.3504
16.3691
16.393
16.429
16.4842
16.5867
16.725
-8.09988
-8.09865
-8.09738
-8.09929
-8.10261
-8.10603
-8.10948
-8.11298
-8.11618
-8.1189
-8.12138
-8.12431
-8.1277
-8.13135
-8.1353
-8.1411
-8.14896
-8.15733
-8.16596
-8.17456
-8.18478
-8.20257
-8.22736
-8.25152
-8.27709
-8.30537
-8.33653
-8.37043
-8.40694
-8.44574
-8.48654
-8.5289
-8.57243
-8.61663
-8.66104
-8.70518
-8.74864
-8.791
-8.83194
-8.87115
-8.90838
-8.94345
-8.97618
-9.00647
-9.03419
-9.05932
-9.08176
-9.10153
-9.11855
-9.13286
-9.14442
-9.15329
-9.15942
-9.16289
-9.16366
-9.16183
-9.15734
-9.15031
-9.14069
-9.12862
-9.11405
-9.09714
-9.07784
-9.05634
-9.03259
-9.00681
-8.97896
-8.94925
-8.91766
-8.88443
-8.84954
-8.81323
-8.77546
-8.73649
-8.6963
-8.65516
-8.61297
-8.56997
-8.52612
-8.48168
-8.43649
-8.39077
-8.34432
-8.29731
-8.24937
-8.20063
-8.15074
-8.0995
-8.0461
-7.99046
-7.93228
-7.87118
-7.80646
-7.73742
-7.66337
-7.58356
-7.49724
-7.4035
-7.30142
-7.18973
-7.06711
-6.93243
-6.7845
-6.62172
-6.4427
-6.24593
-6.0304
-5.79474
-5.53777
-5.25803
-4.95445
-4.62592
-4.27155
-3.89066
-3.48288
-3.04779
-2.58534
-2.09588
-1.58011
-1.03902
-0.473934
0.11349
0.721397
1.34739
1.98871
2.64218
3.30441
3.97177
4.6406
5.30715
5.96775
6.61883
7.25703
7.87921
8.48255
9.0645
9.62293
10.1561
10.6626
11.1416
11.5926
12.0155
12.4107
12.7787
13.1203
13.4367
13.7292
13.9985
14.2456
14.4714
14.6771
14.864
15.0333
15.1863
15.3242
15.4482
15.5595
15.6591
15.7481
15.8273
15.8978
15.9603
16.0155
16.0643
16.1071
16.1448
16.1778
16.2067
16.2321
16.2545
16.2746
16.293
16.3107
16.3288
16.3492
16.3745
16.4099
16.4607
16.5515
16.6651
-8.0931
-8.09386
-8.09438
-8.09691
-8.09996
-8.10232
-8.10393
-8.10494
-8.10541
-8.10546
-8.10544
-8.10577
-8.10662
-8.10801
-8.11032
-8.11454
-8.12116
-8.12949
-8.13907
-8.14952
-8.16116
-8.17591
-8.19505
-8.21709
-8.24229
-8.27086
-8.3026
-8.33717
-8.37423
-8.41337
-8.45419
-8.49624
-8.53912
-8.58238
-8.62562
-8.66846
-8.71056
-8.75158
-8.79123
-8.82927
-8.86547
-8.89966
-8.93166
-8.96136
-8.98865
-9.01345
-9.03568
-9.05532
-9.07229
-9.08661
-9.09823
-9.10718
-9.11343
-9.11701
-9.11791
-9.11617
-9.11179
-9.10482
-9.09526
-9.08319
-9.06861
-9.05161
-9.03221
-9.01052
-8.98657
-8.96049
-8.93232
-8.9022
-8.8702
-8.83646
-8.80106
-8.76416
-8.72583
-8.68624
-8.64547
-8.60369
-8.56093
-8.51735
-8.47299
-8.428
-8.38238
-8.33623
-8.28954
-8.24234
-8.19448
-8.14592
-8.09651
-8.04589
-7.99365
-7.93942
-7.8832
-7.82451
-7.76255
-7.69682
-7.62648
-7.55089
-7.46911
-7.38031
-7.28334
-7.17709
-7.06024
-6.93161
-6.79
-6.63386
-6.46191
-6.27277
-6.06548
-5.8385
-5.59064
-5.32042
-5.02676
-4.7084
-4.36467
-3.99466
-3.59801
-3.17421
-2.72323
-2.24523
-1.74084
-1.21091
-0.656756
-0.0797995
0.51814
1.13485
1.76768
2.41358
3.06927
3.7312
4.39577
5.05923
5.71796
6.36832
7.0069
7.63049
8.2362
8.82144
9.38402
9.92214
10.4344
10.92
11.3784
11.8094
12.2133
12.5904
12.9415
13.2676
13.5695
13.8479
14.1038
14.3381
14.552
14.7467
14.9235
15.0835
15.228
15.3583
15.4755
15.5806
15.6747
15.7588
15.8338
15.9005
15.9596
16.012
16.0583
16.0991
16.1351
16.1667
16.1947
16.2195
16.2418
16.2624
16.282
16.3019
16.3238
16.3501
16.3849
16.4311
16.507
16.583
-8.07808
-8.08212
-8.08602
-8.09033
-8.09409
-8.09656
-8.09775
-8.09789
-8.09713
-8.09572
-8.09407
-8.09266
-8.09185
-8.09193
-8.09331
-8.09661
-8.10231
-8.11041
-8.12076
-8.13317
-8.14764
-8.16457
-8.18441
-8.20716
-8.2329
-8.2616
-8.29312
-8.32719
-8.36353
-8.40176
-8.44153
-8.48243
-8.5241
-8.56612
-8.60813
-8.64976
-8.69066
-8.73054
-8.7691
-8.80611
-8.84135
-8.87464
-8.90582
-8.93478
-8.96138
-8.98557
-9.00725
-9.02638
-9.04291
-9.05683
-9.06808
-9.07669
-9.08262
-9.0859
-9.08651
-9.08448
-9.0798
-9.07253
-9.06266
-9.05026
-9.03533
-9.01796
-8.99818
-8.97607
-8.95169
-8.92514
-8.89649
-8.86587
-8.83335
-8.79907
-8.76314
-8.72571
-8.68687
-8.64679
-8.60558
-8.56339
-8.5203
-8.47645
-8.43193
-8.38683
-8.34121
-8.29515
-8.24867
-8.20177
-8.15439
-8.10644
-8.05781
-8.00822
-7.95716
-7.90464
-7.8503
-7.79372
-7.73432
-7.67142
-7.60437
-7.53238
-7.45462
-7.3701
-7.27778
-7.17647
-7.06491
-6.94186
-6.80598
-6.65595
-6.49037
-6.30807
-6.10783
-5.88825
-5.64792
-5.38557
-5.09992
-4.78984
-4.45449
-4.09308
-3.7051
-3.29012
-2.84795
-2.37872
-1.88295
-1.36143
-0.815402
-0.246198
0.344403
0.954271
1.58082
2.22113
2.87196
3.52986
4.19123
4.85238
5.50964
6.15935
6.79808
7.42257
8.0299
8.61745
9.18306
9.72496
10.2418
10.7328
11.1972
11.635
12.046
12.4307
12.7895
13.1233
13.4326
13.7184
13.9814
14.2226
14.4432
14.6443
14.8272
14.9932
15.1433
15.2789
15.4011
15.5109
15.6094
15.6977
15.7765
15.8467
15.9092
15.9647
16.0139
16.0574
16.0959
16.13
16.1601
16.1869
16.2111
16.2333
16.2544
16.2754
16.298
16.324
16.3566
16.3965
16.4555
16.4988
-8.05542
-8.06312
-8.07167
-8.07887
-8.08427
-8.08773
-8.08948
-8.08989
-8.08929
-8.08797
-8.08638
-8.08498
-8.08423
-8.08457
-8.08642
-8.09022
-8.09633
-8.10491
-8.116
-8.12957
-8.14569
-8.16441
-8.18583
-8.20994
-8.23676
-8.26622
-8.29817
-8.33236
-8.36851
-8.4063
-8.44539
-8.4854
-8.526
-8.56682
-8.60751
-8.64774
-8.68723
-8.72568
-8.76284
-8.7985
-8.83245
-8.86451
-8.89455
-8.92243
-8.94803
-8.97129
-8.99211
-9.01045
-9.02624
-9.03946
-9.05005
-9.05803
-9.06335
-9.06603
-9.06605
-9.06343
-9.05815
-9.05027
-9.03978
-9.02675
-9.01117
-8.99312
-8.97265
-8.94983
-8.92473
-8.89744
-8.86805
-8.83668
-8.80341
-8.7684
-8.73176
-8.69364
-8.65418
-8.61352
-8.57181
-8.52921
-8.48583
-8.44181
-8.39726
-8.35228
-8.30696
-8.26135
-8.21551
-8.16942
-8.12305
-8.07631
-8.02909
-7.9811
-7.9321
-7.8816
-7.82983
-7.77593
-7.71954
-7.65988
-7.59646
-7.52835
-7.45482
-7.37479
-7.28728
-7.19109
-7.08494
-6.96758
-6.83752
-6.69359
-6.53424
-6.35849
-6.16477
-5.95193
-5.71827
-5.46276
-5.18386
-4.88068
-4.55209
-4.19758
-3.81631
-3.40797
-2.97216
-2.50912
-2.01916
-1.50318
-0.962178
-0.397575
0.188949
0.795233
1.41875
2.05659
2.70555
3.36222
4.02294
4.68406
5.34181
5.99258
6.6328
7.25929
7.86902
8.45945
9.0284
9.57415
10.0953
10.591
11.0605
11.5035
11.9199
12.3101
12.6744
13.0135
13.3282
13.6191
13.8871
14.1332
14.3586
14.5644
14.7518
14.9221
15.0764
15.216
15.3419
15.4554
15.5573
15.6487
15.7305
15.8035
15.8686
15.9265
15.9779
16.0234
16.0638
16.0996
16.1314
16.1597
16.1851
16.2084
16.2303
16.2517
16.274
16.2986
16.3276
16.3601
16.4038
16.421
-8.02881
-8.04023
-8.05415
-8.06489
-8.07259
-8.07779
-8.08092
-8.08247
-8.08291
-8.08263
-8.08211
-8.08179
-8.08217
-8.0837
-8.0868
-8.09185
-8.09917
-8.10892
-8.12122
-8.13609
-8.15358
-8.17367
-8.19638
-8.22166
-8.24944
-8.27959
-8.31193
-8.34621
-8.38217
-8.41948
-8.45784
-8.49692
-8.53641
-8.57598
-8.61533
-8.65416
-8.69221
-8.72922
-8.76497
-8.79923
-8.83184
-8.86262
-8.89143
-8.91815
-8.94266
-8.96488
-8.98472
-9.00212
-9.01702
-9.02938
-9.03914
-9.04631
-9.05083
-9.05272
-9.05194
-9.04851
-9.04242
-9.03371
-9.02237
-9.00845
-8.99197
-8.97301
-8.95159
-8.92782
-8.90175
-8.87348
-8.84311
-8.81076
-8.77654
-8.74059
-8.70306
-8.66409
-8.62385
-8.58249
-8.54019
-8.4971
-8.45337
-8.40916
-8.36459
-8.3198
-8.27487
-8.22989
-8.1849
-8.13992
-8.09491
-8.04979
-8.00446
-7.95871
-7.91198
-7.86455
-7.81569
-7.76522
-7.7124
-7.65672
-7.59743
-7.53383
-7.465
-7.38999
-7.30775
-7.21708
-7.11675
-7.00533
-6.88147
-6.74377
-6.59097
-6.42172
-6.23467
-6.02836
-5.80132
-5.55223
-5.27983
-4.983
-4.66078
-4.31237
-3.93701
-3.53417
-3.10358
-2.64534
-2.1598
-1.6477
-1.11002
-0.548129
0.03628
0.641039
1.26362
1.90112
2.55032
3.20777
3.8698
4.53269
5.19265
5.84599
6.48917
7.11892
7.73225
8.3266
8.89981
9.45004
9.97591
10.4763
10.9506
11.3984
11.8196
12.2144
12.5832
12.9267
13.2455
13.5403
13.8122
14.0621
14.2912
14.5005
14.6913
14.8649
15.0224
15.1651
15.294
15.4103
15.5149
15.6088
15.6931
15.7684
15.8355
15.8953
15.9485
15.9957
16.0375
16.0746
16.1076
16.1369
16.1632
16.1871
16.2092
16.2305
16.2518
16.2741
16.2988
16.3236
16.3541
16.3503
-8.00255
-8.01728
-8.0363
-8.05051
-8.06072
-8.06805
-8.07306
-8.0763
-8.07833
-8.07965
-8.08074
-8.08206
-8.08411
-8.0873
-8.09206
-8.09872
-8.10757
-8.11879
-8.13251
-8.14876
-8.16759
-8.18894
-8.21278
-8.23901
-8.26751
-8.29813
-8.33066
-8.36487
-8.40051
-8.43728
-8.4749
-8.51308
-8.55153
-8.58994
-8.62805
-8.66559
-8.70232
-8.73798
-8.77239
-8.80534
-8.83665
-8.86618
-8.89378
-8.91933
-8.94272
-8.96386
-8.98265
-8.99904
-9.01296
-9.02436
-9.03318
-9.03941
-9.04299
-9.04393
-9.04219
-9.03779
-9.03069
-9.02095
-9.00855
-8.99354
-8.97594
-8.95583
-8.93324
-8.90828
-8.881
-8.85153
-8.81995
-8.78641
-8.75102
-8.71396
-8.67536
-8.63539
-8.59424
-8.55208
-8.50908
-8.46544
-8.42133
-8.37692
-8.33236
-8.28779
-8.24333
-8.19907
-8.15509
-8.11141
-8.06798
-8.02477
-7.98167
-7.93837
-7.89473
-7.85031
-7.80509
-7.75851
-7.70981
-7.6586
-7.604
-7.54539
-7.48176
-7.41222
-7.33567
-7.2509
-7.15669
-7.05146
-6.93401
-6.80272
-6.65655
-6.49382
-6.3134
-6.11352
-5.89303
-5.65024
-5.38417
-5.09342
-4.77722
-4.43438
-4.06432
-3.66629
-3.2402
-2.78592
-2.30391
-1.79466
-1.25924
-0.698878
-0.115378
0.489124
1.11207
1.75052
2.40125
3.06071
3.72528
4.39106
5.05433
5.71125
6.35836
6.99228
7.61009
8.20912
8.78715
9.3423
9.87307
10.3784
10.8575
11.3099
11.7355
12.1346
12.5074
12.8547
13.177
13.4753
13.7504
14.0035
14.2355
14.4477
14.6413
14.8176
14.9777
15.1228
15.2541
15.3726
15.4794
15.5755
15.6617
15.7389
15.8079
15.8693
15.924
15.9725
16.0156
16.0538
16.0876
16.1177
16.1445
16.1686
16.1906
16.2112
16.2311
16.2506
16.2706
16.2879
16.3069
16.2863
-7.9802
-7.99763
-8.02086
-8.03803
-8.05055
-8.06002
-8.06703
-8.07216
-8.07602
-8.07916
-8.0821
-8.08527
-8.08917
-8.09419
-8.10073
-8.10907
-8.11952
-8.13221
-8.1473
-8.16481
-8.18478
-8.20715
-8.23186
-8.25879
-8.2878
-8.3187
-8.3513
-8.38536
-8.42064
-8.45687
-8.49379
-8.53112
-8.5686
-8.60595
-8.64293
-8.67928
-8.71479
-8.74922
-8.7824
-8.81413
-8.84425
-8.8726
-8.89906
-8.9235
-8.94581
-8.96589
-8.98365
-8.99904
-9.01195
-9.02235
-9.03017
-9.0354
-9.03795
-9.03785
-9.03504
-9.02953
-9.02129
-9.01036
-8.99672
-8.98044
-8.96153
-8.94007
-8.9161
-8.88974
-8.86103
-8.83013
-8.79714
-8.7622
-8.72545
-8.68708
-8.64724
-8.60613
-8.56394
-8.52086
-8.47711
-8.43288
-8.38837
-8.34377
-8.29926
-8.255
-8.21111
-8.16773
-8.12493
-8.08274
-8.04115
-8.0001
-7.95951
-7.91914
-7.87861
-7.83797
-7.79672
-7.75434
-7.7103
-7.66392
-7.61454
-7.56132
-7.50337
-7.43971
-7.36923
-7.29075
-7.20285
-7.10417
-6.99318
-6.86856
-6.72891
-6.57286
-6.39889
-6.20556
-5.9914
-5.75495
-5.49488
-5.21
-4.89926
-4.5616
-4.19621
-3.80249
-3.38018
-2.92922
-2.44988
-1.94268
-1.40856
-0.848838
-0.265293
0.339905
0.964155
1.60451
2.25766
2.92005
3.58794
4.25745
4.92476
5.58605
6.23776
6.87654
7.49933
8.10344
8.68656
9.24678
9.78254
10.2927
10.7764
11.2333
11.6631
12.0661
12.4426
12.7933
13.1189
13.4201
13.6981
13.9538
14.1884
14.403
14.5989
14.7774
14.9397
15.0868
15.2201
15.3405
15.4491
15.5469
15.6348
15.7136
15.7841
15.847
15.903
15.9528
15.9969
16.036
16.0706
16.1011
16.1282
16.1523
16.1739
16.1935
16.2116
16.2281
16.2433
16.2535
16.2626
16.2284
-7.96419
-7.98362
-8.00977
-8.0291
-8.04349
-8.05481
-8.06365
-8.07058
-8.07623
-8.08117
-8.08592
-8.09092
-8.09663
-8.1034
-8.11162
-8.12154
-8.13344
-8.14745
-8.16372
-8.18227
-8.20314
-8.22625
-8.25155
-8.2789
-8.30816
-8.33914
-8.37165
-8.40545
-8.44032
-8.47599
-8.51222
-8.54875
-8.58534
-8.62173
-8.65769
-8.69299
-8.72743
-8.76078
-8.79287
-8.82352
-8.85258
-8.87989
-8.90532
-8.92876
-8.95008
-8.96918
-8.98598
-9.00039
-9.01233
-9.02175
-9.02857
-9.03276
-9.03425
-9.03304
-9.02907
-9.02235
-9.01285
-9.00061
-8.9856
-8.96789
-8.94749
-8.92449
-8.89895
-8.87097
-8.84064
-8.80811
-8.77348
-8.73694
-8.69864
-8.65877
-8.61752
-8.57511
-8.53174
-8.48765
-8.44306
-8.39819
-8.35327
-8.3085
-8.26409
-8.22022
-8.17703
-8.13467
-8.09324
-8.05276
-8.01325
-7.97466
-7.93689
-7.8997
-7.86294
-7.82611
-7.78929
-7.75155
-7.71253
-7.67142
-7.62764
-7.58023
-7.52837
-7.47101
-7.40699
-7.33512
-7.25382
-7.16185
-7.05752
-6.93971
-6.80672
-6.65743
-6.49
-6.30323
-6.0953
-5.86503
-5.61073
-5.33145
-5.02576
-4.69283
-4.3316
-3.94167
-3.52253
-3.07423
-2.59682
-2.09091
-1.55733
-0.997479
-0.41312
0.193515
0.819795
1.46275
2.11898
2.78496
3.4568
4.1307
4.80266
5.46895
6.12582
6.76991
7.39805
8.0075
8.59589
9.16121
9.70193
10.2168
10.705
11.1661
11.5999
12.0065
12.3864
12.7402
13.0687
13.3726
13.653
13.9111
14.1478
14.3646
14.5625
14.7429
14.9069
15.0558
15.1908
15.3128
15.4229
15.5222
15.6115
15.6916
15.7634
15.8276
15.8848
15.9356
15.9806
16.0205
16.0557
16.0867
16.1139
16.1378
16.1588
16.1771
16.1932
16.2065
16.2171
16.2206
16.2212
16.1761
-7.95584
-7.97642
-8.00406
-8.02463
-8.04027
-8.05298
-8.06329
-8.07172
-8.07891
-8.08544
-8.0918
-8.0984
-8.1057
-8.11399
-8.12366
-8.13491
-8.14802
-8.16309
-8.18028
-8.19959
-8.22107
-8.24464
-8.27026
-8.29777
-8.32705
-8.35791
-8.39016
-8.42358
-8.45795
-8.49303
-8.52859
-8.56437
-8.60014
-8.63567
-8.67075
-8.70514
-8.73865
-8.77108
-8.80225
-8.832
-8.86016
-8.88658
-8.91114
-8.9337
-8.95416
-8.9724
-8.98832
-9.00184
-9.01286
-9.02133
-9.02716
-9.03032
-9.03072
-9.02836
-9.02318
-9.01517
-9.0043
-8.99061
-8.97409
-8.95479
-8.93274
-8.90803
-8.88071
-8.85093
-8.81877
-8.78439
-8.74794
-8.7096
-8.66954
-8.628
-8.58516
-8.5413
-8.49663
-8.45141
-8.4059
-8.36034
-8.31498
-8.27006
-8.2258
-8.1824
-8.14004
-8.09886
-8.05897
-8.02044
-7.98326
-7.9474
-7.91277
-7.87917
-7.84615
-7.8139
-7.78161
-7.74898
-7.71526
-7.67987
-7.64199
-7.6008
-7.55538
-7.50465
-7.44745
-7.38235
-7.30798
-7.22278
-7.12543
-7.01445
-6.88843
-6.74583
-6.58512
-6.4047
-6.20304
-5.97862
-5.73
-5.45587
-5.15498
-4.82628
-4.46887
-4.08217
-3.66576
-3.2195
-2.74349
-2.23824
-1.70467
-1.14416
-0.558506
0.0500334
0.678806
1.32478
1.98458
2.65461
3.33098
4.00979
4.68701
5.35875
6.02122
6.67093
7.30467
7.91961
8.51332
9.08376
9.62932
10.1487
10.6412
11.1063
11.5437
11.9538
12.3368
12.6935
13.0245
13.3308
13.6135
13.8736
14.1123
14.3308
14.5305
14.7125
14.8781
15.0286
15.1649
15.2883
15.3998
15.5003
15.5908
15.6722
15.7451
15.8103
15.8685
15.9203
15.9662
16.0068
16.0425
16.0738
16.101
16.1246
16.1448
16.1618
16.1757
16.1859
16.192
16.1894
16.1827
16.1287
-7.95534
-7.97623
-8.00393
-8.02487
-8.04112
-8.05463
-8.06591
-8.07542
-8.08379
-8.09153
-8.09916
-8.10704
-8.11558
-8.12507
-8.13586
-8.14812
-8.16211
-8.17792
-8.19572
-8.21549
-8.23729
-8.26104
-8.28671
-8.31414
-8.34323
-8.37379
-8.40565
-8.43859
-8.47241
-8.50687
-8.54176
-8.57683
-8.61187
-8.64665
-8.68097
-8.71459
-8.74735
-8.77902
-8.80946
-8.83847
-8.86591
-8.89161
-8.91546
-8.9373
-8.95704
-8.97453
-8.98969
-9.00241
-9.01259
-9.02016
-9.02502
-9.02715
-9.02645
-9.02289
-9.01642
-9.00704
-8.99469
-8.97943
-8.96124
-8.94019
-8.91631
-8.88969
-8.86042
-8.82862
-8.79442
-8.758
-8.7195
-8.67916
-8.63716
-8.59376
-8.54919
-8.50372
-8.45762
-8.41119
-8.36468
-8.31839
-8.27259
-8.22753
-8.18348
-8.14065
-8.09923
-8.05938
-8.02124
-7.98486
-7.95026
-7.9174
-7.8862
-7.85638
-7.82779
-7.8
-7.7728
-7.74555
-7.71749
-7.68807
-7.65642
-7.62174
-7.58305
-7.53918
-7.48897
-7.43081
-7.36347
-7.28523
-7.19497
-7.09091
-6.97187
-6.83593
-6.68183
-6.50763
-6.31207
-6.09326
-5.85005
-5.58076
-5.28438
-4.95959
-4.60571
-4.22191
-3.80789
-3.3633
-2.88836
-2.38347
-1.84968
-1.2883
-0.701143
-0.0904384
0.541145
1.19052
1.85437
2.52892
3.21034
3.8945
4.57739
5.2549
5.92324
6.57877
7.21821
7.83868
8.43767
9.01314
9.56338
10.0872
10.5837
11.0525
11.4934
11.9066
12.2924
12.6517
12.9851
13.2935
13.5782
13.8401
14.0805
14.3007
14.5019
14.6853
14.8523
15.0041
15.1417
15.2664
15.379
15.4807
15.5723
15.6547
15.7286
15.7948
15.8539
15.9066
15.9533
15.9945
16.0306
16.0621
16.0893
16.1125
16.1318
16.1474
16.1592
16.1663
16.1681
16.16
16.1469
16.0856
-7.96206
-7.98247
-8.00906
-8.02957
-8.04579
-8.05951
-8.07119
-8.08128
-8.09034
-8.09888
-8.10734
-8.11608
-8.12548
-8.13578
-8.1473
-8.1602
-8.17472
-8.19095
-8.20903
-8.22895
-8.25079
-8.27445
-8.29993
-8.32707
-8.35579
-8.38589
-8.41724
-8.44961
-8.48283
-8.51666
-8.55091
-8.58533
-8.61972
-8.65385
-8.68753
-8.72054
-8.75269
-8.78379
-8.81366
-8.84212
-8.86902
-8.89418
-8.91749
-8.93878
-8.95793
-8.97481
-8.98931
-9.00131
-9.01071
-9.01742
-9.02135
-9.02243
-9.02059
-9.01578
-9.00795
-8.99709
-8.98315
-8.96617
-8.94616
-8.92317
-8.89727
-8.86854
-8.83709
-8.80307
-8.76662
-8.72793
-8.6872
-8.64465
-8.60052
-8.55509
-8.50862
-8.46141
-8.41378
-8.36603
-8.31847
-8.27142
-8.22518
-8.18003
-8.13626
-8.09409
-8.05375
-8.01541
-7.9792
-7.9452
-7.91342
-7.88383
-7.85631
-7.83064
-7.8065
-7.78378
-7.76189
-7.7402
-7.71811
-7.69487
-7.6697
-7.64173
-7.60991
-7.57309
-7.52985
-7.47883
-7.41847
-7.3474
-7.26408
-7.16707
-7.05475
-6.92554
-6.77776
-6.60979
-6.41998
-6.20675
-5.96861
-5.70415
-5.41206
-5.09122
-4.74073
-4.35984
-3.94808
-3.50512
-3.03111
-2.52652
-1.99233
-1.42984
-0.840854
-0.227603
0.407197
1.06046
1.72874
2.40826
3.09504
3.7849
4.47367
5.15717
5.83147
6.49288
7.138
7.76391
8.36806
8.94834
9.50307
10.031
10.5313
11.0036
11.4476
11.8636
12.2521
12.6137
12.9492
13.2596
13.5459
13.8095
14.0514
14.273
14.4756
14.6603
14.8286
14.9816
15.1204
15.2461
15.3599
15.4626
15.5552
15.6386
15.7134
15.7805
15.8405
15.894
15.9413
15.9831
16.0196
16.0513
16.0783
16.1011
16.1196
16.1338
16.1434
16.1475
16.1454
16.1324
16.1138
16.0466
-7.97485
-7.99412
-8.01877
-8.03814
-8.05373
-8.06705
-8.07858
-8.08872
-8.09798
-8.10682
-8.11565
-8.1248
-8.13461
-8.14529
-8.15715
-8.17031
-8.18501
-8.20131
-8.21936
-8.23915
-8.26075
-8.28409
-8.30916
-8.33582
-8.364
-8.39353
-8.42426
-8.45602
-8.4886
-8.52181
-8.55544
-8.58927
-8.62309
-8.65669
-8.68986
-8.72239
-8.7541
-8.78477
-8.81425
-8.84233
-8.86886
-8.89365
-8.91657
-8.93745
-8.95615
-8.97253
-8.98646
-8.99782
-9.00649
-9.01237
-9.01535
-9.01537
-9.01233
-9.0062
-8.99689
-8.98442
-8.96873
-8.94986
-8.92783
-8.90272
-8.87457
-8.84352
-8.80966
-8.77317
-8.73422
-8.69303
-8.64981
-8.60483
-8.55834
-8.51066
-8.4621
-8.41299
-8.36366
-8.31449
-8.26579
-8.21793
-8.17123
-8.12601
-8.08256
-8.04115
-8.00201
-7.96533
-7.93124
-7.89982
-7.87109
-7.84501
-7.82145
-7.80018
-7.78098
-7.76335
-7.74709
-7.73128
-7.71537
-7.69857
-7.6801
-7.65904
-7.63425
-7.6046
-7.5685
-7.52471
-7.47146
-7.40761
-7.33132
-7.24136
-7.13579
-7.01329
-6.87183
-6.71008
-6.52605
-6.31844
-6.08541
-5.82577
-5.53795
-5.22102
-4.87383
-4.49574
-4.08602
-3.6445
-3.17113
-2.66653
-2.13154
-1.56756
-0.976343
-0.360154
0.278244
0.935732
1.60874
2.29349
2.98577
3.68142
4.37607
5.06556
5.74577
6.41294
7.06361
7.69477
8.30385
8.88868
9.44761
9.97937
10.4832
10.9586
11.4055
11.8241
12.2149
12.5786
12.9159
13.228
13.516
13.781
14.0243
14.2472
14.451
14.6369
14.8063
14.9604
15.1003
15.2271
15.3419
15.4456
15.5392
15.6235
15.6993
15.7672
15.828
15.8822
15.9302
15.9725
16.0093
16.0411
16.068
16.0903
16.1079
16.1207
16.1283
16.1297
16.1239
16.1066
16.0831
16.0111
-7.99239
-8.01009
-8.03223
-8.04991
-8.06432
-8.0767
-8.08752
-8.09717
-8.10611
-8.11473
-8.12343
-8.1325
-8.14225
-8.15289
-8.16466
-8.1777
-8.19221
-8.20825
-8.22596
-8.24533
-8.26644
-8.28923
-8.31369
-8.33971
-8.36722
-8.39608
-8.42614
-8.45723
-8.48917
-8.52175
-8.55478
-8.58805
-8.62137
-8.65452
-8.6873
-8.71948
-8.75088
-8.78129
-8.81052
-8.83837
-8.86468
-8.88924
-8.9119
-8.93248
-8.95082
-8.96677
-8.98018
-8.99092
-8.99884
-9.00386
-9.00582
-9.00467
-9.0003
-8.99266
-8.98169
-8.96738
-8.94971
-8.92871
-8.9044
-8.87687
-8.84619
-8.81249
-8.7759
-8.73662
-8.69485
-8.65082
-8.6048
-8.55708
-8.50796
-8.45779
-8.40691
-8.3557
-8.30454
-8.25381
-8.20389
-8.15518
-8.10802
-8.06278
-8.01975
-7.97924
-7.94147
-7.90667
-7.87494
-7.8464
-7.82104
-7.79879
-7.77957
-7.76309
-7.74896
-7.73714
-7.72673
-7.71722
-7.70783
-7.69783
-7.68637
-7.67247
-7.65504
-7.63269
-7.60407
-7.56756
-7.52176
-7.4651
-7.3961
-7.3131
-7.2145
-7.09855
-6.96358
-6.80786
-6.6297
-6.42744
-6.19949
-5.94436
-5.66071
-5.34737
-5.00327
-4.62758
-4.2196
-3.77906
-3.306
-2.80096
-2.26481
-1.69892
-1.10511
-0.485695
0.156562
0.818413
1.49626
2.1862
2.88396
3.58526
4.28567
4.98088
5.66673
6.33933
6.99517
7.63118
8.24474
8.8337
9.3964
9.93159
10.4385
10.9167
11.3662
11.7871
12.1799
12.5454
12.8845
13.1981
13.4874
13.7537
13.9983
14.2224
14.4273
14.6143
14.7848
14.9399
15.0809
15.2087
15.3245
15.4292
15.5237
15.609
15.6857
15.7545
15.8162
15.871
15.9197
15.9624
15.9995
16.0314
16.0582
16.08
16.0968
16.1082
16.1139
16.1127
16.1037
16.0824
16.0548
15.9789
-8.01338
-8.02922
-8.04853
-8.06412
-8.07688
-8.08781
-8.0974
-8.10601
-8.11407
-8.12193
-8.12998
-8.13845
-8.14767
-8.15778
-8.16903
-8.18154
-8.19547
-8.2109
-8.22795
-8.24662
-8.26699
-8.28901
-8.31268
-8.33789
-8.3646
-8.39265
-8.42193
-8.45227
-8.48352
-8.51546
-8.54792
-8.58069
-8.61357
-8.64635
-8.67881
-8.71074
-8.74194
-8.77217
-8.80126
-8.82898
-8.85514
-8.87954
-8.902
-8.92231
-8.94032
-8.95583
-8.96869
-8.97874
-8.98584
-8.98986
-8.99067
-8.98817
-8.98227
-8.97291
-8.96004
-8.94364
-8.92369
-8.90023
-8.8733
-8.84299
-8.8094
-8.77268
-8.73301
-8.69059
-8.64566
-8.5985
-8.54939
-8.49867
-8.44668
-8.39382
-8.34046
-8.28703
-8.23395
-8.18163
-8.13054
-8.08102
-8.03354
-7.98841
-7.94604
-7.90665
-7.87058
-7.83795
-7.80898
-7.78369
-7.76207
-7.7441
-7.72962
-7.71831
-7.70998
-7.70404
-7.70004
-7.69717
-7.69465
-7.69174
-7.68757
-7.68105
-7.67114
-7.65626
-7.63518
-7.60605
-7.56768
-7.51822
-7.45641
-7.38028
-7.28848
-7.17894
-7.05025
-6.90034
-6.72779
-6.5306
-6.30741
-6.05649
-5.77668
-5.46655
-5.12517
-4.75143
-4.34479
-3.9048
-3.43168
-2.92584
-2.38826
-1.82028
-1.2238
-0.601145
0.044895
0.710983
1.3935
2.08837
2.79136
3.49794
4.20368
4.90412
5.59503
6.27245
6.93281
7.57303
8.19043
8.78292
9.34879
9.88689
10.3964
10.877
11.3286
11.7514
12.146
12.5132
12.8537
13.1686
13.4593
13.7268
13.9725
14.1976
14.4037
14.5918
14.7634
14.9195
15.0615
15.1904
15.3072
15.4129
15.5085
15.5948
15.6724
15.7421
15.8045
15.8601
15.9093
15.9525
15.99
16.022
16.0487
16.07
16.086
16.0962
16.1001
16.0965
16.0846
16.06
16.0287
15.9498
-8.03758
-8.05149
-8.06792
-8.08112
-8.09174
-8.10067
-8.10842
-8.11535
-8.12188
-8.12835
-8.13511
-8.14239
-8.15048
-8.1595
-8.1697
-8.18114
-8.19402
-8.20836
-8.22432
-8.24187
-8.26112
-8.28201
-8.30454
-8.32865
-8.35427
-8.38129
-8.4096
-8.43904
-8.46948
-8.5007
-8.53255
-8.56479
-8.59724
-8.62965
-8.66185
-8.69356
-8.72461
-8.75472
-8.78372
-8.81133
-8.83738
-8.86161
-8.88385
-8.90385
-8.92145
-8.93642
-8.94862
-8.95785
-8.96396
-8.96681
-8.96625
-8.9622
-8.95451
-8.94319
-8.92811
-8.90932
-8.88676
-8.86054
-8.83064
-8.79725
-8.76042
-8.72038
-8.67731
-8.63146
-8.58308
-8.5325
-8.48005
-8.42613
-8.37111
-8.31543
-8.25952
-8.20386
-8.14888
-8.0951
-8.04289
-7.99279
-7.94521
-7.9005
-7.85908
-7.82122
-7.78722
-7.75723
-7.73145
-7.70986
-7.69249
-7.67934
-7.67008
-7.6645
-7.66218
-7.66274
-7.66546
-7.6695
-7.67415
-7.67858
-7.68185
-7.68292
-7.68048
-7.67323
-7.65952
-7.63788
-7.60667
-7.56441
-7.50941
-7.44009
-7.35465
-7.2514
-7.12851
-6.98423
-6.81679
-6.62445
-6.40554
-6.15856
-5.88212
-5.57491
-5.23577
-4.86369
-4.45801
-4.01843
-3.54508
-3.03845
-2.49951
-1.92963
-1.3307
-0.705072
-0.0555864
0.614424
1.30118
2.00054
2.70815
3.4194
4.12972
4.8346
5.52973
6.21112
6.87518
7.51879
8.13931
8.7346
9.30305
9.84347
10.3551
10.8377
11.291
11.7155
12.1117
12.4802
12.8221
13.1383
13.4301
13.6988
13.9456