/*--------------------------------*- C++ -*----------------------------------*\
  =========                 |
  \\      /  F ield         | OpenFOAM: The Open Source CFD Toolbox
   \\    /   O peration     | Website:  https://openfoam.org
    \\  /    A nd           | Version:  8
     \\/     M anipulation  |
\*---------------------------------------------------------------------------*/
FoamFile
{
    version     2.0;
    format      ascii;
    class       surfaceScalarField;
    location    "100";
    object      phi;
}
// * * * * * * * * * * * * * * * * * * * * * * * * * * * * * * * * * * * * * //

dimensions      [0 3 -1 0 0 0 0];

internalField   nonuniform List<scalar> 
24170
(
3.129e-06
5.94063e-08
3.0466e-06
8.23994e-08
2.97347e-06
7.31237e-08
2.90478e-06
6.86824e-08
2.84037e-06
6.43999e-08
2.78294e-06
5.74271e-08
2.73349e-06
4.94468e-08
2.69136e-06
4.2115e-08
2.65547e-06
3.58882e-08
2.62473e-06
3.0735e-08
2.59813e-06
2.65931e-08
2.57478e-06
2.33477e-08
2.55392e-06
2.08525e-08
2.53479e-06
1.91267e-08
2.51673e-06
1.80617e-08
2.49751e-06
1.92126e-08
2.47717e-06
2.03421e-08
3.98343e-08
2.43733e-06
3.45306e-06
2.3593e-08
3.457e-06
7.8461e-08
3.45052e-06
7.95976e-08
3.43904e-06
8.0159e-08
3.42422e-06
7.92105e-08
3.40693e-06
7.47156e-08
3.38763e-06
6.87354e-08
3.36701e-06
6.27319e-08
3.34573e-06
5.71586e-08
3.32438e-06
5.2078e-08
3.30343e-06
4.75428e-08
3.28313e-06
4.36452e-08
3.26364e-06
4.03301e-08
3.24496e-06
3.78096e-08
3.22717e-06
3.58439e-08
3.2101e-06
3.62858e-08
3.19432e-06
3.61252e-08
4.85909e-08
3.18556e-06
3.66815e-06
1.79556e-08
3.67918e-06
6.74295e-08
3.68539e-06
7.3388e-08
3.68939e-06
7.61522e-08
3.69095e-06
7.76509e-08
3.68992e-06
7.57335e-08
3.68671e-06
7.19423e-08
3.68177e-06
6.76669e-08
3.67549e-06
6.34358e-08
3.66818e-06
5.93844e-08
3.66011e-06
5.56138e-08
3.65149e-06
5.22562e-08
3.64249e-06
4.93291e-08
3.63322e-06
4.70746e-08
3.62366e-06
4.5405e-08
3.61436e-06
4.55801e-08
3.6043e-06
4.61798e-08
5.25505e-08
3.60034e-06
3.92584e-06
1.75014e-08
3.9359e-06
5.73726e-08
3.94252e-06
6.67589e-08
3.94803e-06
7.06442e-08
3.95239e-06
7.32807e-08
3.95528e-06
7.28449e-08
3.95687e-06
7.03492e-08
3.9574e-06
6.71335e-08
3.95705e-06
6.37785e-08
3.95596e-06
6.04668e-08
3.95426e-06
5.73127e-08
3.95204e-06
5.44668e-08
3.94939e-06
5.19835e-08
3.94638e-06
5.00788e-08
3.94302e-06
4.87685e-08
3.93981e-06
4.87809e-08
3.93648e-06
4.95099e-08
5.26603e-08
3.93637e-06
4.20819e-06
1.64357e-08
4.21596e-06
4.96025e-08
4.22163e-06
6.10855e-08
4.2267e-06
6.5575e-08
4.23139e-06
6.8581e-08
4.2353e-06
6.89377e-08
4.23838e-06
6.72634e-08
4.24075e-06
6.47623e-08
4.2425e-06
6.20209e-08
4.24372e-06
5.92425e-08
4.24448e-06
5.655e-08
4.24485e-06
5.40927e-08
4.24488e-06
5.19514e-08
4.24466e-06
5.02973e-08
4.24424e-06
4.91859e-08
4.24403e-06
4.89946e-08
4.24411e-06
4.94206e-08
5.07936e-08
4.24598e-06
4.5107e-06
1.482e-08
4.51686e-06
4.34456e-08
4.52208e-06
5.58638e-08
4.52685e-06
6.07968e-08
4.53151e-06
6.392e-08
4.53569e-06
6.47562e-08
4.53927e-06
6.36747e-08
4.54232e-06
6.17082e-08
4.54491e-06
5.94317e-08
4.54709e-06
5.70616e-08
4.5489e-06
5.473e-08
4.55042e-06
5.25767e-08
4.55167e-06
5.06942e-08
4.55276e-06
4.92088e-08
4.55377e-06
4.81756e-08
4.555e-06
4.77585e-08
4.55666e-06
4.77545e-08
4.80083e-08
4.55945e-06
4.83432e-06
1.32171e-08
4.8396e-06
3.81639e-08
4.8447e-06
5.07662e-08
4.84936e-06
5.61326e-08
4.85393e-06
5.93399e-08
4.85818e-06
6.05072e-08
4.86196e-06
5.98884e-08
4.86532e-06
5.83496e-08
4.8683e-06
5.64463e-08
4.87095e-06
5.44056e-08
4.87331e-06
5.2366e-08
4.87543e-06
5.04554e-08
4.87736e-06
4.87664e-08
4.87918e-06
4.73875e-08
4.881e-06
4.63549e-08
4.88304e-06
4.57115e-08
4.8855e-06
4.52877e-08
4.48053e-08
4.88871e-06
5.18104e-06
1.17582e-08
5.18573e-06
3.34741e-08
5.1907e-06
4.57919e-08
5.19531e-06
5.15215e-08
5.19984e-06
5.48077e-08
5.20412e-06
5.62162e-08
5.20803e-06
5.59767e-08
5.21158e-06
5.48014e-08
5.2148e-06
5.32149e-08
5.21775e-06
5.14539e-08
5.22046e-06
4.96586e-08
5.22296e-06
4.79462e-08
5.22533e-06
4.64015e-08
5.22763e-06
4.50848e-08
5.22997e-06
4.40108e-08
5.23252e-06
4.31594e-08
5.23542e-06
4.23821e-08
4.14183e-08
5.23881e-06
5.55268e-06
1.04105e-08
5.55686e-06
2.92929e-08
5.56164e-06
4.10113e-08
5.56621e-06
4.69519e-08
5.57071e-06
5.02952e-08
5.57505e-06
5.18767e-08
5.57907e-06
5.19518e-08
5.58277e-06
5.10958e-08
5.5862e-06
4.97891e-08
5.58937e-06
4.82737e-08
5.59234e-06
4.66891e-08
5.59514e-06
4.51422e-08
5.59783e-06
4.37075e-08
5.60049e-06
4.24255e-08
5.60321e-06
4.12942e-08
5.60609e-06
4.0268e-08
5.60925e-06
3.92216e-08
3.79526e-08
5.61272e-06
5.95103e-06
9.15492e-09
5.95476e-06
2.55607e-08
5.9593e-06
3.64643e-08
5.96382e-06
4.24343e-08
5.96831e-06
4.57974e-08
5.97269e-06
4.74932e-08
5.97682e-06
4.78213e-08
5.98067e-06
4.72434e-08
5.98427e-06
4.61856e-08
5.98765e-06
4.48891e-08
5.99085e-06
4.34899e-08
5.9939e-06
4.20852e-08
5.99687e-06
4.07388e-08
5.99981e-06
3.94789e-08
6.00281e-06
3.82949e-08
6.00594e-06
3.71363e-08
6.00926e-06
3.59046e-08
3.44603e-08
6.01275e-06
6.37798e-06
7.99092e-09
6.38132e-06
2.22106e-08
6.38562e-06
3.21588e-08
6.39007e-06
3.79827e-08
6.39455e-06
4.13172e-08
6.39896e-06
4.3075e-08
6.40319e-06
4.35941e-08
6.40718e-06
4.32508e-08
6.41095e-06
4.24127e-08
6.41452e-06
4.13103e-08
6.41793e-06
4.00758e-08
6.42122e-06
3.87962e-08
6.42443e-06
3.75268e-08
6.42762e-06
3.62884e-08
6.43084e-06
3.50691e-08
6.43415e-06
3.38251e-08
6.43757e-06
3.24853e-08
3.09601e-08
6.44107e-06
5.74175e-06
7.07077e-09
5.74432e-06
1.96376e-08
5.74777e-06
2.8707e-08
5.75147e-06
3.42801e-08
5.75524e-06
3.75471e-08
5.75899e-06
3.93211e-08
5.76263e-06
3.99541e-08
5.7661e-06
3.97731e-08
5.76941e-06
3.9097e-08
5.77258e-06
3.81413e-08
5.77562e-06
3.70319e-08
5.77857e-06
3.58488e-08
5.78145e-06
3.46409e-08
5.78431e-06
3.3427e-08
5.78718e-06
3.21967e-08
5.79008e-06
3.09169e-08
5.79303e-06
2.95356e-08
2.80005e-08
5.79599e-06
6.99913e-06
6.09459e-09
7.00185e-06
1.69125e-08
7.0056e-06
2.49585e-08
7.00974e-06
3.0137e-08
7.01402e-06
3.32565e-08
7.01834e-06
3.50006e-08
7.02258e-06
3.57151e-08
7.02667e-06
3.56794e-08
7.0306e-06
3.51607e-08
7.03439e-06
3.43527e-08
7.03805e-06
3.33721e-08
7.0416e-06
3.22923e-08
7.04508e-06
3.1156e-08
7.04852e-06
2.99814e-08
7.05195e-06
2.8764e-08
7.05538e-06
2.74818e-08
7.05881e-06
2.61052e-08
2.46051e-08
7.06221e-06
8.53187e-06
5.06855e-09
8.53472e-06
1.4062e-08
8.53874e-06
2.09393e-08
8.54331e-06
2.55562e-08
8.54814e-06
2.84224e-08
8.55307e-06
3.00692e-08
8.55797e-06
3.08148e-08
8.56275e-06
3.08915e-08
8.5674e-06
3.05149e-08
8.5719e-06
2.98485e-08
8.57627e-06
2.9e-08
8.58052e-06
2.80313e-08
8.58469e-06
2.69832e-08
8.5888e-06
2.58726e-08
8.59286e-06
2.47033e-08
8.59687e-06
2.34652e-08
8.60082e-06
2.21456e-08
2.07356e-08
8.60469e-06
1.04003e-05
4.00115e-09
1.04032e-05
1.11039e-08
1.04075e-05
1.66675e-08
1.04125e-05
2.05427e-08
1.04179e-05
2.30213e-08
1.04235e-05
2.44826e-08
1.04291e-05
2.51886e-08
1.04347e-05
2.53291e-08
1.04401e-05
2.50658e-08
1.04454e-05
2.45318e-08
1.04506e-05
2.3814e-08
1.04557e-05
2.29706e-08
1.04606e-05
2.2033e-08
1.04655e-05
2.10232e-08
1.04702e-05
1.99472e-08
1.04749e-05
1.88091e-08
1.04794e-05
1.76062e-08
1.63423e-08
1.04838e-05
1.26779e-05
2.89505e-09
1.2681e-05
8.03109e-09
1.26855e-05
1.21379e-08
1.26909e-05
1.50838e-08
1.26969e-05
1.7019e-08
1.27032e-05
1.81818e-08
1.27097e-05
1.87636e-08
1.27161e-05
1.89035e-08
1.27224e-05
1.87172e-08
1.27287e-05
1.82978e-08
1.27348e-05
1.77149e-08
1.27407e-05
1.70119e-08
1.27465e-05
1.62188e-08
1.27522e-05
1.53524e-08
1.27577e-05
1.44265e-08
1.27631e-05
1.34477e-08
1.27682e-05
1.24248e-08
1.13623e-08
1.27732e-05
1.54543e-05
1.73842e-09
1.54576e-05
4.79432e-09
1.54624e-05
7.2886e-09
1.54684e-05
9.11478e-09
1.54751e-05
1.0334e-08
1.54822e-05
1.10698e-08
1.54895e-05
1.14314e-08
1.54969e-05
1.15023e-08
1.55043e-05
1.13506e-08
1.55115e-05
1.1032e-08
1.55186e-05
1.05894e-08
1.55256e-05
1.00529e-08
1.55324e-05
9.443e-09
1.55389e-05
8.77424e-09
1.55453e-05
8.05795e-09
1.55514e-05
7.30432e-09
1.55573e-05
6.52263e-09
5.71944e-09
1.5563e-05
1.88389e-05
4.89263e-10
1.88424e-05
1.26872e-09
1.88477e-05
1.94399e-09
1.88544e-05
2.44122e-09
1.8862e-05
2.76515e-09
1.88701e-05
2.94201e-09
1.88785e-05
2.99228e-09
1.88871e-05
2.93548e-09
1.88957e-05
2.78917e-09
1.89041e-05
2.56934e-09
1.89124e-05
2.28797e-09
1.89205e-05
1.95591e-09
1.89284e-05
1.58102e-09
1.8936e-05
1.17062e-09
1.89433e-05
7.30942e-10
1.89503e-05
2.69109e-10
1.8957e-05
-2.07467e-10
-6.9523e-10
1.89635e-05
2.29648e-05
-9.55913e-10
2.29689e-05
-2.83357e-09
2.29751e-05
-4.31354e-09
2.2983e-05
-5.41209e-09
2.29919e-05
-6.16181e-09
2.30015e-05
-6.65418e-09
2.30115e-05
-6.97356e-09
2.30216e-05
-7.17948e-09
2.30317e-05
-7.30584e-09
2.30416e-05
-7.38918e-09
2.30513e-05
-7.45125e-09
2.30608e-05
-7.51147e-09
2.307e-05
-7.57467e-09
2.30788e-05
-7.64828e-09
2.30872e-05
-7.73088e-09
2.30953e-05
-7.82529e-09
2.3103e-05
-7.92598e-09
-8.03665e-09
2.31104e-05
1.68118e-05
-2.09174e-09
1.6815e-05
-6.02508e-09
1.68199e-05
-9.18275e-09
1.68259e-05
-1.14667e-08
1.68327e-05
-1.29524e-08
1.68399e-05
-1.38651e-08
1.68474e-05
-1.43987e-08
1.68548e-05
-1.46518e-08
1.68622e-05
-1.47106e-08
1.68695e-05
-1.46406e-08
1.68765e-05
-1.45018e-08
1.68833e-05
-1.43225e-08
1.68899e-05
-1.41288e-08
1.68962e-05
-1.3928e-08
1.69021e-05
-1.37332e-08
1.69079e-05
-1.35438e-08
1.69133e-05
-1.33649e-08
-1.31948e-08
1.69185e-05
1.46357e-05
-3.18166e-09
1.46388e-05
-9.12981e-09
1.46435e-05
-1.39286e-08
1.46493e-05
-1.72593e-08
1.46556e-05
-1.93026e-08
1.46623e-05
-2.05117e-08
1.4669e-05
-2.11538e-08
1.46757e-05
-2.13711e-08
1.46823e-05
-2.12903e-08
1.46887e-05
-2.10312e-08
1.46949e-05
-2.06669e-08
1.47008e-05
-2.02454e-08
1.47065e-05
-1.97939e-08
1.47119e-05
-1.93342e-08
1.4717e-05
-1.88773e-08
1.47219e-05
-1.84321e-08
1.47265e-05
-1.79993e-08
-1.75846e-08
1.47309e-05
1.27412e-05
-4.20196e-09
1.27443e-05
-1.2272e-08
1.27491e-05
-1.87862e-08
1.27548e-05
-2.29451e-08
1.27609e-05
-2.53362e-08
1.27671e-05
-2.67336e-08
1.27733e-05
-2.74018e-08
1.27794e-05
-2.74897e-08
1.27853e-05
-2.72055e-08
1.2791e-05
-2.67142e-08
1.27965e-05
-2.61053e-08
1.28016e-05
-2.5432e-08
1.28066e-05
-2.47278e-08
1.28113e-05
-2.40205e-08
1.28157e-05
-2.33212e-08
1.28199e-05
-2.26422e-08
1.28239e-05
-2.19823e-08
-2.13482e-08
1.28276e-05
1.10918e-05
-5.05501e-09
1.1095e-05
-1.5506e-08
1.11002e-05
-2.39345e-08
1.11058e-05
-2.86035e-08
1.11116e-05
-3.11148e-08
1.11174e-05
-3.25992e-08
1.11232e-05
-3.31892e-08
1.11288e-05
-3.30672e-08
1.11341e-05
-3.2535e-08
1.11392e-05
-3.17897e-08
1.1144e-05
-3.09251e-08
1.11486e-05
-2.99956e-08
1.11529e-05
-2.90462e-08
1.1157e-05
-2.81007e-08
1.11608e-05
-2.7179e-08
1.11645e-05
-2.6284e-08
1.11679e-05
-2.5422e-08
-2.4592e-08
1.11711e-05
9.65583e-06
-5.67021e-09
9.65926e-06
-1.894e-08
9.66462e-06
-2.92987e-08
9.67014e-06
-3.41287e-08
9.67573e-06
-3.67092e-08
9.68133e-06
-3.82004e-08
9.68671e-06
-3.85693e-08
9.69178e-06
-3.81464e-08
9.69658e-06
-3.73337e-08
9.70111e-06
-3.63257e-08
9.70539e-06
-3.52019e-08
9.70941e-06
-3.4021e-08
9.71319e-06
-3.28295e-08
9.71674e-06
-3.16581e-08
9.72008e-06
-3.05204e-08
9.72322e-06
-2.94241e-08
9.72616e-06
-2.83695e-08
-2.73549e-08
9.72892e-06
8.40533e-06
-5.64763e-09
8.40965e-06
-2.3264e-08
8.4149e-06
-3.45498e-08
8.41994e-06
-3.91796e-08
8.42534e-06
-4.2105e-08
8.43078e-06
-4.36437e-08
8.4359e-06
-4.36939e-08
8.44064e-06
-4.28939e-08
8.44505e-06
-4.17456e-08
8.44915e-06
-4.04258e-08
8.45295e-06
-3.9004e-08
8.45647e-06
-3.75422e-08
8.45972e-06
-3.60891e-08
8.46274e-06
-3.46731e-08
8.46552e-06
-3.3309e-08
8.4681e-06
-3.20028e-08
8.47048e-06
-3.07548e-08
-2.95653e-08
8.47269e-06
7.31455e-06
-2.91556e-09
7.3212e-06
-2.99151e-08
7.32676e-06
-4.01152e-08
7.33173e-06
-4.41513e-08
7.33715e-06
-4.75264e-08
7.3425e-06
-4.89933e-08
7.3474e-06
-4.86038e-08
7.35185e-06
-4.73406e-08
7.35586e-06
-4.57581e-08
7.35944e-06
-4.40153e-08
7.36263e-06
-4.21938e-08
7.36545e-06
-4.03626e-08
7.36793e-06
-3.85779e-08
7.37012e-06
-3.68621e-08
7.37204e-06
-3.52301e-08
7.37372e-06
-3.3685e-08
7.37519e-06
-3.22259e-08
-3.08456e-08
7.37647e-06
6.36245e-06
4.69532e-09
6.3719e-06
-3.93636e-08
6.37934e-06
-4.75546e-08
6.38599e-06
-5.08076e-08
6.39229e-06
-5.38289e-08
6.39762e-06
-5.43294e-08
6.40194e-06
-5.29241e-08
6.40545e-06
-5.08482e-08
6.40827e-06
-4.85853e-08
6.41048e-06
-4.62278e-08
6.41214e-06
-4.38501e-08
6.4133e-06
-4.15331e-08
6.41405e-06
-3.93248e-08
6.41443e-06
-3.72443e-08
6.4145e-06
-3.53045e-08
6.41431e-06
-3.35017e-08
6.41392e-06
-3.18371e-08
-3.02882e-08
6.41337e-06
5.54121e-06
8.95401e-09
5.55033e-06
-4.84929e-08
5.55836e-06
-5.55813e-08
5.56607e-06
-5.85226e-08
5.57254e-06
-6.03066e-08
5.57688e-06
-5.86728e-08
5.57914e-06
-5.5186e-08
5.57972e-06
-5.14289e-08
5.57898e-06
-4.78537e-08
5.57722e-06
-4.44631e-08
5.57464e-06
-4.12769e-08
5.57144e-06
-3.83379e-08
5.56777e-06
-3.56537e-08
5.56374e-06
-3.32156e-08
5.55945e-06
-3.10207e-08
5.555e-06
-2.90518e-08
5.55047e-06
-2.73093e-08
-2.57459e-08
5.54593e-06
4.86004e-06
-2.34836e-08
4.86539e-06
-5.38395e-08
4.86524e-06
-5.54411e-08
4.86218e-06
-5.54614e-08
4.85702e-06
-5.51482e-08
4.84953e-06
-5.11865e-08
4.83984e-06
-4.5506e-08
4.82846e-06
-4.00535e-08
4.8159e-06
-3.5299e-08
4.80264e-06
-3.12034e-08
4.78906e-06
-2.76977e-08
4.77544e-06
-2.47194e-08
4.76197e-06
-2.21877e-08
4.74878e-06
-2.00325e-08
4.73597e-06
-1.82079e-08
4.72359e-06
-1.6679e-08
4.71176e-06
-1.54852e-08
-1.51448e-08
4.70116e-06
4.17919e-06
4.12535e-06
4.06991e-06
4.01445e-06
3.9593e-06
3.90811e-06
3.86261e-06
3.82255e-06
3.78725e-06
3.75605e-06
3.72835e-06
3.70363e-06
3.68144e-06
3.66141e-06
3.6432e-06
3.62652e-06
3.61104e-06
3.59589e-06
2.11988e-08
-2.13348e-08
4.51717e-08
-2.4083e-08
6.48549e-08
-1.98198e-08
7.87879e-08
-1.40008e-08
8.63435e-08
-7.6708e-09
8.76797e-08
-1.40917e-09
8.3206e-08
4.36139e-09
7.37507e-08
9.36026e-09
6.01611e-08
1.34773e-08
4.33364e-08
1.67136e-08
2.40869e-08
1.91396e-08
3.04819e-09
2.09351e-08
-1.96907e-08
2.26339e-08
-4.50162e-08
2.52501e-08
-7.4386e-08
2.92213e-08
-1.03812e-07
2.93173e-08
-1.30536e-07
2.65034e-08
-1.62368e-07
3.17426e-08
-2.00979e-07
3.84207e-08
-2.46262e-07
4.52154e-08
-2.97627e-07
5.12025e-08
-3.53586e-07
5.59113e-08
-4.13435e-07
5.97106e-08
-4.75937e-07
6.24629e-08
-5.40372e-07
6.43046e-08
-6.06475e-07
6.60621e-08
-6.742e-07
6.75899e-08
-7.42973e-07
6.87279e-08
-8.12497e-07
6.93902e-08
-8.8211e-07
6.9562e-08
-9.51501e-07
6.92523e-08
-1.02007e-06
6.85106e-08
-1.08759e-06
6.73831e-08
-1.1536e-06
6.59404e-08
-1.21798e-06
6.42394e-08
-1.2804e-06
6.23532e-08
-1.34087e-06
6.03339e-08
-1.39918e-06
5.82437e-08
-1.45542e-06
5.61191e-08
-1.50948e-06
5.40067e-08
-1.56151e-06
5.19267e-08
-1.61148e-06
4.99103e-08
-1.65954e-06
4.79645e-08
-1.7057e-06
4.61091e-08
-1.75013e-06
4.43417e-08
-1.79286e-06
4.26729e-08
-1.83404e-06
4.10949e-08
-1.87371e-06
3.96131e-08
-1.91201e-06
3.82172e-08
-1.94898e-06
3.69106e-08
-1.98474e-06
3.56812e-08
-2.01933e-06
3.45305e-08
-2.05286e-06
3.34474e-08
-2.08538e-06
3.24339e-08
-2.11695e-06
3.14791e-08
-2.14763e-06
3.05853e-08
-2.17747e-06
2.97442e-08
-2.20654e-06
2.8959e-08
-2.23487e-06
2.82225e-08
-2.26253e-06
2.75379e-08
-2.28955e-06
2.68998e-08
-2.31599e-06
2.63119e-08
-2.34187e-06
2.57709e-08
-2.36728e-06
2.52789e-08
-2.39222e-06
2.48349e-08
-2.4168e-06
2.44405e-08
-2.44099e-06
2.4097e-08
-2.46493e-06
2.38046e-08
-2.48858e-06
2.35665e-08
-2.51209e-06
2.33801e-08
-2.53541e-06
2.32512e-08
-2.55871e-06
2.31757e-08
-2.58193e-06
2.31606e-08
-2.60525e-06
2.31975e-08
-2.62861e-06
2.32945e-08
-2.6522e-06
2.34399e-08
-2.67592e-06
2.3643e-08
-2.69997e-06
2.38931e-08
-2.72424e-06
2.41973e-08
-2.74893e-06
2.45338e-08
-2.77392e-06
2.49126e-08
-2.79939e-06
2.5313e-08
-2.82518e-06
2.57452e-08
-2.8515e-06
2.61774e-08
-2.87816e-06
2.66207e-08
-2.90531e-06
2.70436e-08
-2.93277e-06
2.74582e-08
-2.96059e-06
2.78394e-08
-2.98868e-06
2.81895e-08
-3.01697e-06
2.85009e-08
-3.04549e-06
2.8703e-08
-3.0741e-06
2.87803e-08
-3.10267e-06
2.87059e-08
-3.131e-06
2.84753e-08
-3.15894e-06
2.80637e-08
-3.18626e-06
2.74561e-08
-3.21278e-06
2.66096e-08
-3.23814e-06
2.54518e-08
-3.26175e-06
2.36392e-08
-3.28337e-06
2.16309e-08
-3.30359e-06
2.01557e-08
-3.32139e-06
1.76426e-08
-3.33623e-06
1.45862e-08
-3.34778e-06
1.11716e-08
-3.3556e-06
7.41771e-09
-3.35968e-06
3.61924e-09
-3.35958e-06
-5.11148e-10
-3.35556e-06
-4.46118e-09
-3.34703e-06
-8.87137e-09
-3.33427e-06
-1.31135e-08
-3.31739e-06
-1.71373e-08
-3.29567e-06
-2.20023e-08
-3.26894e-06
-2.68964e-08
-3.23724e-06
-3.18942e-08
-3.19989e-06
-3.74397e-08
-3.15699e-06
-4.30135e-08
-3.10863e-06
-4.8378e-08
-3.05468e-06
-5.39534e-08
-2.99468e-06
-5.98871e-08
-2.92891e-06
-6.56943e-08
-2.85746e-06
-7.1397e-08
-2.78029e-06
-7.72552e-08
-2.69738e-06
-8.29727e-08
-2.60887e-06
-8.85928e-08
-2.51482e-06
-9.39844e-08
-2.41552e-06
-9.91802e-08
-2.31116e-06
-1.0409e-07
-2.20213e-06
-1.08727e-07
-2.08872e-06
-1.13011e-07
-1.97136e-06
-1.16946e-07
-1.8504e-06
-1.2047e-07
-1.72634e-06
-1.23581e-07
-1.5996e-06
-1.26238e-07
-1.47066e-06
-1.28441e-07
-1.33998e-06
-1.30178e-07
-1.20803e-06
-1.31464e-07
-1.07525e-06
-1.32311e-07
-9.42093e-07
-1.32739e-07
-8.08973e-07
-1.32779e-07
-6.7628e-07
-1.32454e-07
-5.44335e-07
-1.31781e-07
-4.13537e-07
-1.30729e-07
-2.83925e-07
-1.29604e-07
-1.54982e-07
-1.29011e-07
-2.57474e-08
-1.29345e-07
1.03511e-07
-1.2941e-07
2.30679e-07
-1.27331e-07
3.54265e-07
-1.23768e-07
4.73745e-07
-1.19659e-07
5.88846e-07
-1.15289e-07
6.99467e-07
-1.10801e-07
8.05543e-07
-1.06258e-07
9.07089e-07
-1.01716e-07
1.00415e-06
-9.72301e-08
1.09682e-06
-9.28265e-08
1.18517e-06
-8.84967e-08
1.26933e-06
-8.42942e-08
1.34945e-06
-8.0244e-08
1.42565e-06
-7.63135e-08
1.49805e-06
-7.25014e-08
1.56678e-06
-6.88236e-08
1.63199e-06
-6.52956e-08
1.69384e-06
-6.19179e-08
1.75245e-06
-5.86658e-08
1.80792e-06
-5.55305e-08
1.8604e-06
-5.25134e-08
1.90997e-06
-4.96088e-08
1.95674e-06
-4.67954e-08
2.00078e-06
-4.40653e-08
2.04215e-06
-4.13863e-08
2.08084e-06
-3.87123e-08
2.1168e-06
-3.59698e-08
2.14984e-06
-3.30571e-08
2.17963e-06
-2.97897e-08
2.20542e-06
-2.58197e-08
2.22593e-06
-2.05245e-08
2.23733e-06
-1.14306e-08
2.23043e-06
6.87195e-09
2.18324e-06
4.71635e-08
1.15897e-07
2.06735e-06
2.1207e-08
-4.26556e-08
3.49617e-08
-3.79218e-08
4.18256e-08
-2.67619e-08
4.37042e-08
-1.59246e-08
4.13766e-08
-5.4046e-09
3.5184e-08
4.73655e-09
2.51462e-08
1.43374e-08
1.11838e-08
2.32643e-08
-6.84523e-09
3.14417e-08
-2.91022e-08
3.89048e-08
-5.57083e-08
4.56821e-08
-8.66052e-08
5.17733e-08
-1.21739e-07
5.77096e-08
-1.60705e-07
6.41689e-08
-2.02689e-07
7.11489e-08
-2.50793e-07
7.73777e-08
-3.06864e-07
8.25175e-08
-3.6424e-07
8.90805e-08
-4.22545e-07
9.6673e-08
-4.81986e-07
1.04623e-07
-5.42983e-07
1.12151e-07
-6.05731e-07
1.18628e-07
-6.70045e-07
1.23979e-07
-7.35846e-07
1.28236e-07
-8.02893e-07
1.31305e-07
-8.70199e-07
1.33335e-07
-9.3714e-07
1.3448e-07
-1.00321e-06
1.34763e-07
-1.06807e-06
1.34203e-07
-1.13141e-06
1.32857e-07
-1.19302e-06
1.30814e-07
-1.25273e-06
1.28179e-07
-1.31047e-06
1.25063e-07
-1.36615e-06
1.21578e-07
-1.41979e-06
1.17825e-07
-1.47139e-06
1.13903e-07
-1.52101e-06
1.09895e-07
-1.56868e-06
1.05875e-07
-1.61451e-06
1.01901e-07
-1.65856e-06
9.80186e-08
-1.70095e-06
9.42615e-08
-1.74173e-06
9.06551e-08
-1.78102e-06
8.72126e-08
-1.81889e-06
8.39445e-08
-1.85544e-06
8.08519e-08
-1.89074e-06
7.79356e-08
-1.92487e-06
7.51895e-08
-1.95791e-06
7.26097e-08
-1.98992e-06
7.01867e-08
-2.02096e-06
6.79142e-08
-2.0511e-06
6.57811e-08
-2.08039e-06
6.3781e-08
-2.10889e-06
6.19036e-08
-2.13665e-06
6.01436e-08
-2.16371e-06
5.84917e-08
-2.19013e-06
5.69445e-08
-2.21594e-06
5.54951e-08
-2.24118e-06
5.41422e-08
-2.2659e-06
5.28805e-08
-2.29014e-06
5.17096e-08
-2.31393e-06
5.06265e-08
-2.33732e-06
4.96327e-08
-2.36034e-06
4.87263e-08
-2.38305e-06
4.79094e-08
-2.40546e-06
4.71812e-08
-2.42763e-06
4.65446e-08
-2.4496e-06
4.59999e-08
-2.47141e-06
4.55499e-08
-2.4931e-06
4.51952e-08
-2.51472e-06
4.49374e-08
-2.5363e-06
4.47774e-08
-2.5579e-06
4.47148e-08
-2.57954e-06
4.47493e-08
-2.60128e-06
4.48778e-08
-2.62313e-06
4.50969e-08
-2.64516e-06
4.5401e-08
-2.66737e-06
4.57885e-08
-2.6898e-06
4.62501e-08
-2.71244e-06
4.67781e-08
-2.73534e-06
4.73572e-08
-2.75846e-06
4.7979e-08
-2.78184e-06
4.86245e-08
-2.80543e-06
4.92801e-08
-2.82924e-06
4.99197e-08
-2.85319e-06
5.05282e-08
-2.87727e-06
5.10779e-08
-2.90138e-06
5.15511e-08
-2.92546e-06
5.19182e-08
-2.94935e-06
5.21734e-08
-2.973e-06
5.22527e-08
-2.9963e-06
5.21149e-08
-3.01913e-06
5.1706e-08
-3.04133e-06
5.09842e-08
-3.06271e-06
4.99346e-08
-3.08308e-06
4.85086e-08
-3.10224e-06
4.66798e-08
-3.11997e-06
4.43823e-08
-3.13605e-06
4.15733e-08
-3.15058e-06
3.81713e-08
-3.16333e-06
3.43638e-08
-3.17356e-06
3.03035e-08
-3.18162e-06
2.55731e-08
-3.18742e-06
2.01729e-08
-3.1908e-06
1.42896e-08
-3.19171e-06
8.01632e-09
-3.18979e-06
1.39454e-09
-3.18485e-06
-5.75209e-09
-3.17616e-06
-1.34124e-08
-3.16371e-06
-2.15809e-08
-3.14694e-06
-3.00896e-08
-3.12532e-06
-3.89563e-08
-3.09911e-06
-4.8363e-08
-3.0679e-06
-5.8253e-08
-3.03132e-06
-6.85692e-08
-2.98955e-06
-7.92949e-08
-2.94231e-06
-9.03017e-08
-2.88924e-06
-1.01483e-07
-2.83022e-06
-1.12936e-07
-2.7655e-06
-1.24555e-07
-2.69492e-06
-1.36213e-07
-2.61837e-06
-1.47946e-07
-2.53601e-06
-1.5966e-07
-2.44783e-06
-1.71234e-07
-2.35389e-06
-1.82571e-07
-2.25434e-06
-1.93519e-07
-2.1494e-06
-2.04034e-07
-2.03934e-06
-2.14006e-07
-1.9245e-06
-2.23381e-07
-1.80524e-06
-2.32059e-07
-1.68195e-06
-2.39986e-07
-1.55508e-06
-2.47077e-07
-1.42511e-06
-2.53292e-07
-1.2925e-06
-2.58576e-07
-1.15776e-06
-2.62914e-07
-1.02139e-06
-2.66293e-07
-8.83877e-07
-2.68732e-07
-7.45708e-07
-2.70251e-07
-6.07358e-07
-2.70902e-07
-4.69251e-07
-2.70737e-07
-3.3178e-07
-2.69835e-07
-1.95112e-07
-2.68389e-07
-5.92231e-08
-2.66605e-07
7.55306e-08
-2.64363e-07
2.08054e-07
-2.6158e-07
3.36793e-07
-2.58138e-07
4.60934e-07
-2.53633e-07
5.81164e-07
-2.47643e-07
6.97829e-07
-2.40534e-07
8.10813e-07
-2.32739e-07
9.19965e-07
-2.24551e-07
1.02519e-06
-2.16125e-07
1.12641e-06
-2.07596e-07
1.22364e-06
-1.99039e-07
1.31685e-06
-1.90556e-07
1.40611e-06
-1.82185e-07
1.49148e-06
-1.73963e-07
1.57302e-06
-1.65928e-07
1.65082e-06
-1.58129e-07
1.72497e-06
-1.50547e-07
1.7956e-06
-1.43208e-07
1.86282e-06
-1.36115e-07
1.92676e-06
-1.29295e-07
1.98753e-06
-1.22739e-07
2.04523e-06
-1.16425e-07
2.1e-06
-1.10334e-07
2.15192e-06
-1.0447e-07
2.20109e-06
-9.88105e-08
2.2476e-06
-9.33324e-08
2.29151e-06
-8.80045e-08
2.33288e-06
-8.2773e-08
2.3717e-06
-7.75416e-08
2.40789e-06
-7.21805e-08
2.44131e-06
-6.64809e-08
2.47162e-06
-6.01122e-08
2.49824e-06
-5.24546e-08
2.52012e-06
-4.24255e-08
2.53609e-06
-2.74236e-08
2.54552e-06
-2.576e-09
2.54701e-06
4.56542e-08
1.37505e-07
2.52541e-06
9.09869e-09
-5.18476e-08
1.00743e-08
-3.8962e-08
6.51352e-09
-2.32585e-08
-6.47933e-10
-8.79628e-09
-1.10061e-08
4.91045e-09
-2.43867e-08
1.80842e-08
-4.08705e-08
3.07811e-08
-6.06582e-08
4.30145e-08
-8.40445e-08
5.47873e-08
-1.11284e-07
6.61052e-08
-1.42561e-07
7.69209e-08
-1.78058e-07
8.72351e-08
-2.17662e-07
9.728e-08
-2.60833e-07
1.07311e-07
-3.0704e-07
1.17325e-07
-3.56672e-07
1.26986e-07
-4.10223e-07
1.36038e-07
-4.66082e-07
1.44918e-07
-5.23094e-07
1.53655e-07
-5.80511e-07
1.62019e-07
-6.38086e-07
1.69698e-07
-6.95916e-07
1.76437e-07
-7.54003e-07
1.82036e-07
-8.12102e-07
1.86314e-07
-8.70053e-07
1.89226e-07
-9.27551e-07
1.9081e-07
-9.84265e-07
1.91161e-07
-1.0399e-06
1.90376e-07
-1.0943e-06
1.8857e-07
-1.14734e-06
1.85868e-07
-1.19896e-06
1.824e-07
-1.24911e-06
1.78302e-07
-1.29779e-06
1.73708e-07
-1.34498e-06
1.68747e-07
-1.39073e-06
1.63534e-07
-1.43503e-06
1.58175e-07
-1.47792e-06
1.52761e-07
-1.51944e-06
1.47369e-07
-1.55963e-06
1.42061e-07
-1.59853e-06
1.36886e-07
-1.63617e-06
1.3188e-07
-1.67261e-06
1.27069e-07
-1.70789e-06
1.22468e-07
-1.74206e-06
1.18087e-07
-1.77516e-06
1.1393e-07
-1.80724e-06
1.09994e-07
-1.83836e-06
1.06277e-07
-1.86854e-06
1.02771e-07
-1.89785e-06
9.94672e-08
-1.92632e-06
9.6357e-08
-1.954e-06
9.34297e-08
-1.98092e-06
9.06758e-08
-2.00713e-06
8.80856e-08
-2.03267e-06
8.56506e-08
-2.05757e-06
8.33623e-08
-2.08188e-06
8.12144e-08
-2.10562e-06
7.92008e-08
-2.12884e-06
7.73177e-08
-2.15156e-06
7.55608e-08
-2.17382e-06
7.39284e-08
-2.19565e-06
7.24185e-08
-2.2171e-06
7.10312e-08
-2.23818e-06
6.97664e-08
-2.25894e-06
6.86254e-08
-2.27941e-06
6.76091e-08
-2.29963e-06
6.67197e-08
-2.31963e-06
6.59589e-08
-2.33946e-06
6.5329e-08
-2.35913e-06
6.48314e-08
-2.3787e-06
6.44674e-08
-2.3982e-06
6.42372e-08
-2.41766e-06
6.41405e-08
-2.43712e-06
6.41753e-08
-2.45662e-06
6.4337e-08
-2.47618e-06
6.46205e-08
-2.49583e-06
6.50186e-08
-2.51561e-06
6.55232e-08
-2.53552e-06
6.61231e-08
-2.55559e-06
6.6804e-08
-2.57582e-06
6.75481e-08
-2.59622e-06
6.83373e-08
-2.61678e-06
6.91482e-08
-2.6375e-06
6.99554e-08
-2.65835e-06
7.07285e-08
-2.67929e-06
7.14387e-08
-2.70029e-06
7.20505e-08
-2.72129e-06
7.25297e-08
-2.74221e-06
7.28436e-08
-2.76295e-06
7.29481e-08
-2.78343e-06
7.28033e-08
-2.80357e-06
7.23307e-08
-2.8233e-06
7.1471e-08
-2.84245e-06
7.01853e-08
-2.8609e-06
6.84169e-08
-2.87849e-06
6.61326e-08
-2.89506e-06
6.32699e-08
-2.91045e-06
5.97912e-08
-2.92453e-06
5.56386e-08
-2.93716e-06
5.07983e-08
-2.94815e-06
4.53019e-08
-2.95713e-06
3.91981e-08
-2.96406e-06
3.23708e-08
-2.96883e-06
2.47471e-08
-2.97115e-06
1.6402e-08
-2.97076e-06
7.37001e-09
-2.96723e-06
-2.35698e-09
-2.96034e-06
-1.2867e-08
-2.94978e-06
-2.41609e-08
-2.93535e-06
-3.61982e-08
-2.91667e-06
-4.89127e-08
-2.89346e-06
-6.2316e-08
-2.86555e-06
-7.63787e-08
-2.83272e-06
-9.11934e-08
-2.7947e-06
-1.06642e-07
-2.75144e-06
-1.22623e-07
-2.7027e-06
-1.39074e-07
-2.64827e-06
-1.55928e-07
-2.58805e-06
-1.73127e-07
-2.52203e-06
-1.90532e-07
-2.45015e-06
-2.08058e-07
-2.3724e-06
-2.25708e-07
-2.28882e-06
-2.43273e-07
-2.19947e-06
-2.60646e-07
-2.10441e-06
-2.77647e-07
-2.00382e-06
-2.94104e-07
-1.8979e-06
-3.09881e-07
-1.78696e-06
-3.24851e-07
-1.67132e-06
-3.38882e-07
-1.55137e-06
-3.51856e-07
-1.42752e-06
-3.63654e-07
-1.30024e-06
-3.74176e-07
-1.17e-06
-3.83339e-07
-1.0373e-06
-3.91079e-07
-9.02668e-07
-3.9736e-07
-7.66604e-07
-4.02176e-07
-6.29616e-07
-4.05547e-07
-4.92195e-07
-4.07518e-07
-3.5481e-07
-4.08153e-07
-2.17868e-07
-4.0758e-07
-8.1644e-08
-4.05978e-07
5.34411e-08
-4.03419e-07
1.86696e-07
-3.99808e-07
3.17434e-07
-3.95071e-07
4.45115e-07
-3.89232e-07
5.69221e-07
-3.82235e-07
6.8949e-07
-3.73893e-07
8.06038e-07
-3.64196e-07
9.18926e-07
-3.53422e-07
1.02807e-06
-3.41898e-07
1.1334e-06
-3.29883e-07
1.23483e-06
-3.17574e-07
1.33235e-06
-3.05121e-07
1.42594e-06
-2.92645e-07
1.51563e-06
-2.80255e-07
1.60146e-06
-2.68028e-07
1.6835e-06
-2.56013e-07
1.76182e-06
-2.44261e-07
1.83652e-06
-2.32831e-07
1.9077e-06
-2.21745e-07
1.97551e-06
-2.11014e-07
2.04004e-06
-2.00648e-07
2.1014e-06
-1.90664e-07
2.15973e-06
-1.81062e-07
2.21512e-06
-1.71815e-07
2.26769e-06
-1.62905e-07
2.31755e-06
-1.54318e-07
2.36478e-06
-1.46033e-07
2.40947e-06
-1.38013e-07
2.45168e-06
-1.30214e-07
2.49147e-06
-1.22548e-07
2.52882e-06
-1.14886e-07
2.56369e-06
-1.07038e-07
2.59593e-06
-9.8717e-08
2.62529e-06
-8.94631e-08
2.65133e-06
-7.84854e-08
2.67333e-06
-6.44223e-08
2.69043e-06
-4.45264e-08
2.70191e-06
-1.40683e-08
2.7097e-06
3.78702e-08
1.30042e-07
2.71717e-06
-4.80882e-09
-4.71203e-08
-1.49316e-08
-2.88915e-08
-2.73309e-08
-1.09034e-08
-4.19468e-08
5.79242e-09
-5.87905e-08
2.17224e-08
-7.79251e-08
3.71947e-08
-9.95132e-08
5.23398e-08
-1.23728e-07
6.72039e-08
-1.50757e-07
8.17887e-08
-1.8074e-07
9.6063e-08
-2.13815e-07
1.0997e-07
-2.50074e-07
1.23472e-07
-2.89415e-07
1.36597e-07
-3.315e-07
1.49377e-07
-3.75957e-07
1.61761e-07
-4.22588e-07
1.736e-07
-4.71311e-07
1.8474e-07
-5.21573e-07
1.95163e-07
-5.72756e-07
2.04817e-07
-6.2433e-07
2.13578e-07
-6.75942e-07
2.21288e-07
-7.27317e-07
2.27796e-07
-7.78282e-07
2.32978e-07
-8.28719e-07
2.36733e-07
-8.78544e-07
2.39027e-07
-9.27648e-07
2.39895e-07
-9.75938e-07
2.39425e-07
-1.02332e-06
2.37735e-07
-1.06974e-06
2.34963e-07
-1.11514e-06
2.31253e-07
-1.15952e-06
2.26753e-07
-1.20285e-06
2.21609e-07
-1.24513e-06
2.1596e-07
-1.28634e-06
2.09938e-07
-1.32649e-06
2.03665e-07
-1.36559e-06
1.9725e-07
-1.40364e-06
1.90785e-07
-1.44064e-06
1.8435e-07
-1.4766e-06
1.78009e-07
-1.51155e-06
1.71814e-07
-1.54549e-06
1.65802e-07
-1.57844e-06
1.60004e-07
-1.61043e-06
1.54438e-07
-1.64148e-06
1.49115e-07
-1.67161e-06
1.44043e-07
-1.70086e-06
1.39222e-07
-1.72925e-06
1.34648e-07
-1.75682e-06
1.30317e-07
-1.78359e-06
1.26219e-07
-1.8096e-06
1.22347e-07
-1.83488e-06
1.1869e-07
-1.85947e-06
1.15238e-07
-1.88338e-06
1.11981e-07
-1.90667e-06
1.0891e-07
-1.92935e-06
1.06018e-07
-1.95146e-06
1.03295e-07
-1.97303e-06
1.00738e-07
-1.99408e-06
9.83399e-08
-2.01465e-06
9.60982e-08
-2.03476e-06
9.40105e-08
-2.05445e-06
9.20753e-08
-2.07374e-06
9.02929e-08
-2.09267e-06
8.86637e-08
-2.11127e-06
8.71894e-08
-2.12957e-06
8.58719e-08
-2.1476e-06
8.47137e-08
-2.16539e-06
8.37175e-08
-2.18298e-06
8.28856e-08
-2.2004e-06
8.22202e-08
-2.21768e-06
8.17225e-08
-2.23487e-06
8.13932e-08
-2.25199e-06
8.12307e-08
-2.26907e-06
8.12325e-08
-2.28615e-06
8.13939e-08
-2.30327e-06
8.17074e-08
-2.32044e-06
8.21635e-08
-2.3377e-06
8.27514e-08
-2.35506e-06
8.34556e-08
-2.37255e-06
8.42578e-08
-2.39016e-06
8.51358e-08
-2.40792e-06
8.6065e-08
-2.42582e-06
8.70156e-08
-2.44385e-06
8.79547e-08
-2.46199e-06
8.88452e-08
-2.48023e-06
8.96476e-08
-2.49852e-06
9.03186e-08
-2.51682e-06
9.08131e-08
-2.53506e-06
9.10815e-08
-2.55316e-06
9.10816e-08
-2.57105e-06
9.07308e-08
-2.58867e-06
8.99817e-08
-2.60591e-06
8.87471e-08
-2.62269e-06
8.69727e-08
-2.63885e-06
8.45946e-08
-2.65427e-06
8.15611e-08
-2.66881e-06
7.78063e-08
-2.68231e-06
7.32803e-08
-2.69462e-06
6.7927e-08
-2.70559e-06
6.17202e-08
-2.715e-06
5.46473e-08
-2.72261e-06
4.67074e-08
-2.72824e-06
3.78485e-08
-2.73168e-06
2.80019e-08
-2.73267e-06
1.71788e-08
-2.73089e-06
5.37617e-09
-2.72603e-06
-7.41361e-09
-2.71784e-06
-2.12411e-08
-2.70608e-06
-3.60929e-08
-2.69047e-06
-5.19482e-08
-2.67076e-06
-6.8754e-08
-2.64667e-06
-8.65113e-08
-2.61797e-06
-1.0517e-07
-2.58446e-06
-1.2478e-07
-2.54595e-06
-1.45216e-07
-2.50223e-06
-1.66384e-07
-2.45314e-06
-1.88186e-07
-2.39851e-06
-2.10562e-07
-2.33821e-06
-2.33392e-07
-2.27217e-06
-2.56537e-07
-2.20035e-06
-2.79856e-07
-2.12279e-06
-3.03295e-07