/*--------------------------------*- C++ -*----------------------------------*\
  =========                 |
  \\      /  F ield         | OpenFOAM: The Open Source CFD Toolbox
   \\    /   O peration     | Website:  https://openfoam.org
    \\  /    A nd           | Version:  8
     \\/     M anipulation  |
\*---------------------------------------------------------------------------*/
FoamFile
{
    version     2.0;
    format      ascii;
    class       volVectorField;
    location    "100";
    object      U;
}
// * * * * * * * * * * * * * * * * * * * * * * * * * * * * * * * * * * * * * //

dimensions      [0 1 -1 0 0 0 0];

internalField   nonuniform List<vector> 
12225
(
(9.85697 -0.886412 0)
(9.6666 -0.740745 0)
(9.45559 -0.429459 0)
(9.22424 -0.222191 0)
(9.00601 -0.106415 0)
(8.81361 -0.0458098 0)
(8.64629 -0.0151083 0)
(8.50371 0.000553344 0)
(8.38134 0.00852231 0)
(8.27785 0.0124628 0)
(8.18823 0.0142567 0)
(8.11065 0.0153824 0)
(8.04162 0.0159428 0)
(7.97957 0.0165306 0)
(7.92105 0.0169726 0)
(7.86747 0.0188672 0)
(7.79344 0.0199492 0)
(7.78301 0.0306794 0)
(10.0545 0.227556 0)
(10.121 0.326934 0)
(10.1196 0.261591 0)
(10.0855 0.186587 0)
(10.0432 0.13473 0)
(9.9964 0.101208 0)
(9.94354 0.0794245 0)
(9.88449 0.0647472 0)
(9.82285 0.0545124 0)
(9.75983 0.0470231 0)
(9.69785 0.0414081 0)
(9.63721 0.0370862 0)
(9.57894 0.0337849 0)
(9.52319 0.0315371 0)
(9.46913 0.0300633 0)
(9.42023 0.0317179 0)
(9.36617 0.0322796 0)
(9.34108 0.0564709 0)
(10.0035 0.0579249 0)
(10.0303 0.0560256 0)
(10.056 0.0338212 0)
(10.0702 0.032958 0)
(10.0767 0.0407437 0)
(10.0775 0.0466825 0)
(10.072 0.0495498 0)
(10.0606 0.0505672 0)
(10.0451 0.0505664 0)
(10.0262 0.0499953 0)
(10.0051 0.0491601 0)
(9.98218 0.0483104 0)
(9.95806 0.0475986 0)
(9.93311 0.0473452 0)
(9.90722 0.0475328 0)
(9.88181 0.0499136 0)
(9.855 0.0527714 0)
(9.83354 0.0660158 0)
(9.99778 0.0110647 0)
(10.011 0.0266354 0)
(10.0349 0.0372032 0)
(10.0524 0.0481696 0)
(10.0641 0.0555802 0)
(10.073 0.0583657 0)
(10.0789 0.0586076 0)
(10.0816 0.0579629 0)
(10.0816 0.0570486 0)
(10.0797 0.056042 0)
(10.0761 0.0550432 0)
(10.0711 0.0542186 0)
(10.0648 0.0536337 0)
(10.0576 0.0535771 0)
(10.0494 0.0540994 0)
(10.0411 0.0564004 0)
(10.0326 0.0597013 0)
(10.0266 0.068022 0)
(9.99935 0.00721311 0)
(10.009 0.0316926 0)
(10.0274 0.0439926 0)
(10.0416 0.0500354 0)
(10.0525 0.0537777 0)
(10.0624 0.0554691 0)
(10.071 0.0558396 0)
(10.0775 0.0556701 0)
(10.0823 0.0552918 0)
(10.0858 0.0548169 0)
(10.0881 0.054334 0)
(10.0894 0.0539909 0)
(10.0899 0.0538808 0)
(10.0897 0.0542413 0)
(10.0888 0.0551924 0)
(10.088 0.0574249 0)
(10.0876 0.060621 0)
(10.0892 0.0659372 0)
(10.0003 0.00919816 0)
(10.0083 0.0312191 0)
(10.0226 0.0410334 0)
(10.0348 0.0455329 0)
(10.0448 0.0492416 0)
(10.0544 0.0516585 0)
(10.0632 0.0527475 0)
(10.0706 0.053123 0)
(10.0768 0.0531819 0)
(10.082 0.0530841 0)
(10.0864 0.05294 0)
(10.0901 0.0528911 0)
(10.0932 0.0530478 0)
(10.0957 0.0535972 0)
(10.098 0.0546634 0)
(10.1004 0.0566072 0)
(10.1034 0.0592457 0)
(10.108 0.0626553 0)
(10.0004 0.0089694 0)
(10.0071 0.0271459 0)
(10.019 0.0365217 0)
(10.03 0.0415587 0)
(10.0393 0.0456581 0)
(10.0483 0.0484197 0)
(10.0567 0.0498127 0)
(10.0642 0.0504449 0)
(10.0707 0.0507362 0)
(10.0765 0.0508552 0)
(10.0816 0.0509133 0)
(10.0863 0.0510378 0)
(10.0904 0.0513381 0)
(10.0943 0.0519532 0)
(10.098 0.0529788 0)
(10.1019 0.0545736 0)
(10.1064 0.0565785 0)
(10.1121 0.0587203 0)
(10.0004 0.00794548 0)
(10.006 0.023451 0)
(10.0161 0.0328636 0)
(10.0261 0.0382994 0)
(10.0349 0.0423819 0)
(10.0432 0.045174 0)
(10.0512 0.0467243 0)
(10.0585 0.0475392 0)
(10.065 0.0480011 0)
(10.0709 0.0482769 0)
(10.0764 0.0484764 0)
(10.0814 0.0487127 0)
(10.0861 0.0490854 0)
(10.0905 0.0496925 0)
(10.095 0.0505931 0)
(10.0996 0.051828 0)
(10.1048 0.0532386 0)
(10.1108 0.0544848 0)
(10.0004 0.0069948 0)
(10.005 0.0205099 0)
(10.0136 0.0296016 0)
(10.0227 0.0350892 0)
(10.031 0.0390381 0)
(10.0388 0.041821 0)
(10.0464 0.043507 0)
(10.0534 0.0444786 0)
(10.0598 0.0450751 0)
(10.0657 0.0454677 0)
(10.0712 0.0457646 0)
(10.0764 0.0460662 0)
(10.0813 0.046457 0)
(10.0861 0.0470032 0)
(10.0909 0.0477306 0)
(10.0959 0.048618 0)
(10.1013 0.0495129 0)
(10.1073 0.0501173 0)
(10.0004 0.0061689 0)
(10.0043 0.0179549 0)
(10.0116 0.0264426 0)
(10.0197 0.0318378 0)
(10.0274 0.0356709 0)
(10.0348 0.0384299 0)
(10.042 0.0402082 0)
(10.0487 0.0412961 0)
(10.055 0.0419918 0)
(10.0609 0.0424669 0)
(10.0664 0.0428259 0)
(10.0716 0.0431564 0)
(10.0766 0.0435262 0)
(10.0816 0.0439778 0)
(10.0865 0.0445133 0)
(10.0917 0.0450845 0)
(10.097 0.0455564 0)
(10.1028 0.0457017 0)
(10.0003 0.0054137 0)
(10.0036 0.0156546 0)
(10.0098 0.0234208 0)
(10.0172 0.0286271 0)
(10.0243 0.0323278 0)
(10.0313 0.0350199 0)
(10.038 0.0368327 0)
(10.0445 0.0379933 0)
(10.0506 0.0387559 0)
(10.0564 0.0392839 0)
(10.0618 0.0396759 0)
(10.0671 0.0400062 0)
(10.0721 0.0403284 0)
(10.0771 0.0406681 0)
(10.0821 0.041014 0)
(10.0872 0.0413112 0)
(10.0925 0.0414507 0)
(10.098 0.041272 0)
(10.0003 0.0047526 0)
(10.0031 0.0137228 0)
(10.0085 0.0207898 0)
(10.0151 0.025738 0)
(10.0218 0.0292799 0)
(10.0283 0.0318735 0)
(10.0348 0.0336732 0)
(10.041 0.0348642 0)
(10.0469 0.0356607 0)
(10.0525 0.0362128 0)
(10.0579 0.0366118 0)
(10.0632 0.0369212 0)
(10.0682 0.0371839 0)
(10.0732 0.0374154 0)
(10.0782 0.0375996 0)
(10.0832 0.037686 0)
(10.0883 0.0375903 0)
(10.0935 0.0372052 0)
(10.0003 0.00414222 0)
(10.0027 0.0119588 0)
(10.0074 0.0183011 0)
(10.0134 0.022914 0)
(10.0195 0.0262606 0)
(10.0257 0.0287278 0)
(10.0318 0.0304788 0)
(10.0378 0.0316685 0)
(10.0436 0.0324741 0)
(10.0491 0.0330296 0)
(10.0544 0.0334178 0)
(10.0595 0.0336929 0)
(10.0645 0.0338887 0)
(10.0695 0.0340157 0)
(10.0744 0.0340579 0)
(10.0793 0.0339737 0)
(10.0842 0.0337008 0)
(10.0891 0.0331705 0)
(10.0002 0.0035118 0)
(10.0024 0.0101248 0)
(10.0064 0.0156308 0)
(10.0117 0.0197828 0)
(10.0173 0.0228496 0)
(10.0231 0.0251284 0)
(10.0289 0.0267767 0)
(10.0346 0.0279228 0)
(10.0401 0.0287058 0)
(10.0455 0.0292386 0)
(10.0507 0.0295945 0)
(10.0557 0.0298178 0)
(10.0607 0.0299342 0)
(10.0655 0.0299513 0)
(10.0703 0.029857 0)
(10.075 0.0296222 0)
(10.0797 0.0292061 0)
(10.0843 0.0285691 0)
(10.0002 0.00285672 0)
(10.002 0.00821767 0)
(10.0055 0.0127852 0)
(10.0101 0.0163442 0)
(10.0153 0.0190264 0)
(10.0206 0.0210373 0)
(10.026 0.022513 0)
(10.0314 0.0235569 0)
(10.0367 0.0242718 0)
(10.0419 0.0247461 0)
(10.0469 0.0250408 0)
(10.0518 0.0251918 0)
(10.0566 0.0252183 0)
(10.0614 0.0251261 0)
(10.066 0.0249092 0)
(10.0705 0.0245516 0)
(10.0749 0.0240317 0)
(10.0792 0.023331 0)
(10.0002 0.0021754 0)
(10.0017 0.00623818 0)
(10.0047 0.0097704 0)
(10.0087 0.0125995 0)
(10.0134 0.0147739 0)
(10.0183 0.0164189 0)
(10.0233 0.0176358 0)
(10.0284 0.0185029 0)
(10.0335 0.0190909 0)
(10.0384 0.0194623 0)
(10.0433 0.0196626 0)
(10.0481 0.0197207 0)
(10.0527 0.0196508 0)
(10.0572 0.0194581 0)
(10.0616 0.0191416 0)
(10.0659 0.018696 0)
(10.0701 0.0181147 0)
(10.0741 0.0173914 0)
(10.0002 0.00146383 0)
(10.0015 0.00417062 0)
(10.0041 0.00656728 0)
(10.0077 0.0085273 0)
(10.0118 0.0100573 0)
(10.0163 0.0112212 0)
(10.021 0.0120803 0)
(10.0258 0.0126845 0)
(10.0306 0.0130772 0)
(10.0354 0.0132952 0)
(10.04 0.0133678 0)
(10.0446 0.0133143 0)
(10.049 0.0131455 0)
(10.0534 0.012866 0)
(10.0575 0.0124777 0)
(10.0616 0.0119814 0)
(10.0655 0.0113791 0)
(10.0692 0.0106705 0)
(10.0001 0.000704625 0)
(10.0013 0.00196181 0)
(10.0036 0.00310152 0)
(10.0069 0.00404439 0)
(10.0108 0.00478182 0)
(10.015 0.00533497 0)
(10.0194 0.00572608 0)
(10.0239 0.00597453 0)
(10.0285 0.00609774 0)
(10.033 0.00610998 0)
(10.0375 0.00602232 0)
(10.0418 0.00584271 0)
(10.0461 0.00557628 0)
(10.0502 0.00522559 0)
(10.0541 0.00479269 0)
(10.0579 0.00428018 0)
(10.0616 0.00369267 0)
(10.0651 0.0030308 0)
(10.0001 -0.000146458 0)
(10.0013 -0.000510711 0)
(10.0035 -0.000801598 0)
(10.0066 -0.00104447 0)
(10.0103 -0.00124817 0)
(10.0144 -0.00142912 0)
(10.0187 -0.00160571 0)
(10.0231 -0.00179228 0)
(10.0275 -0.0019975 0)
(10.0319 -0.00223012 0)
(10.0362 -0.00249745 0)
(10.0404 -0.0028058 0)
(10.0444 -0.00315872 0)
(10.0483 -0.00355897 0)
(10.0521 -0.00400757 0)
(10.0557 -0.00450452 0)
(10.0592 -0.00504679 0)
(10.0624 -0.00563668 0)
(10.0001 -0.000963217 0)
(10.0013 -0.00288265 0)
(10.0037 -0.00455482 0)
(10.007 -0.00592965 0)
(10.0109 -0.00701351 0)
(10.0151 -0.00786765 0)
(10.0195 -0.00855498 0)
(10.024 -0.00911867 0)
(10.0284 -0.00959547 0)
(10.0328 -0.0100181 0)
(10.037 -0.010414 0)
(10.0412 -0.0108019 0)
(10.0451 -0.0111952 0)
(10.049 -0.011602 0)
(10.0526 -0.0120287 0)
(10.0561 -0.0124789 0)
(10.0594 -0.0129537 0)
(10.0626 -0.0134573 0)
(10.0002 -0.00166773 0)
(10.0015 -0.00495258 0)
(10.0041 -0.00783139 0)
(10.0078 -0.0101279 0)
(10.0121 -0.0118719 0)
(10.0166 -0.0132147 0)
(10.0212 -0.0142638 0)
(10.0258 -0.0150774 0)
(10.0304 -0.0157141 0)
(10.0348 -0.0162327 0)
(10.0391 -0.0166809 0)
(10.0432 -0.0170886 0)
(10.0472 -0.0174766 0)
(10.051 -0.0178578 0)
(10.0546 -0.0182425 0)
(10.058 -0.018637 0)
(10.0613 -0.0190446 0)
(10.0643 -0.0194707 0)
(10.0002 -0.00233642 0)
(10.0017 -0.00699599 0)
(10.0047 -0.0111009 0)
(10.009 -0.0142272 0)
(10.0138 -0.0164816 0)
(10.0187 -0.018176 0)
(10.0235 -0.0194716 0)
(10.0284 -0.0204419 0)
(10.0332 -0.0211676 0)
(10.0377 -0.0217305 0)
(10.0421 -0.0221883 0)
(10.0463 -0.0225806 0)
(10.0502 -0.0229335 0)
(10.054 -0.023267 0)
(10.0576 -0.0235936 0)
(10.061 -0.0239228 0)
(10.0642 -0.0242579 0)
(10.0672 -0.0246051 0)
(10.0002 -0.00296205 0)
(10.0018 -0.00906324 0)
(10.0054 -0.0143893 0)
(10.0106 -0.0182449 0)
(10.016 -0.0209569 0)
(10.0213 -0.0229489 0)
(10.0265 -0.0243776 0)
(10.0316 -0.0253702 0)
(10.0366 -0.0260818 0)
(10.0413 -0.0266223 0)
(10.0457 -0.0270488 0)
(10.0499 -0.0273982 0)
(10.0539 -0.0276998 0)
(10.0577 -0.0279759 0)
(10.0613 -0.0282417 0)
(10.0647 -0.0285066 0)
(10.0679 -0.0287743 0)
(10.0709 -0.0290501 0)
(10.0001 -0.00351354 0)
(10.0018 -0.0115242 0)
(10.0063 -0.0178383 0)
(10.0123 -0.0219101 0)
(10.0184 -0.0249525 0)
(10.0242 -0.0273399 0)
(10.0298 -0.0289588 0)
(10.0353 -0.0299527 0)
(10.0404 -0.0305932 0)
(10.0452 -0.0310468 0)
(10.0498 -0.0313826 0)
(10.0541 -0.03164 0)
(10.0581 -0.031853 0)
(10.0619 -0.0320452 0)
(10.0655 -0.0322319 0)
(10.0688 -0.0324203 0)
(10.072 -0.0326136 0)
(10.0749 -0.0328128 0)
(9.99992 -0.00336696 0)
(10.0016 -0.014947 0)
(10.0073 -0.0226885 0)
(10.0143 -0.0261812 0)
(10.0207 -0.0287481 0)
(10.0269 -0.0310961 0)
(10.0332 -0.0328045 0)
(10.0392 -0.0338823 0)
(10.0447 -0.0345736 0)
(10.0497 -0.0350331 0)
(10.0544 -0.0353325 0)
(10.0588 -0.0355258 0)
(10.0628 -0.0356591 0)
(10.0665 -0.0357638 0)
(10.07 -0.0358584 0)
(10.0731 -0.035953 0)
(10.0761 -0.0360513 0)
(10.0788 -0.0361562 0)
(9.9986 -0.000388066 0)
(9.99909 -0.0157406 0)
(10.0076 -0.0274012 0)
(10.0167 -0.032449 0)
(10.0238 -0.0348105 0)
(10.0307 -0.0361514 0)
(10.0378 -0.0368921 0)
(10.0443 -0.0373517 0)
(10.0501 -0.0376957 0)
(10.0553 -0.0379408 0)
(10.0599 -0.0380871 0)
(10.064 -0.0381596 0)
(10.0676 -0.0381894 0)
(10.0708 -0.0381988 0)
(10.0736 -0.0382027 0)
(10.076 -0.0382095 0)
(10.0782 -0.0382213 0)
(10.08 -0.0382403 0)
(9.99488 0.00134235 0)
(9.99288 -0.00808166 0)
(10.0061 -0.0203321 0)
(10.0202 -0.0322459 0)
(10.0307 -0.0404382 0)
(10.0393 -0.0441001 0)
(10.0469 -0.0450029 0)
(10.0531 -0.0448513 0)
(10.058 -0.0443806 0)
(10.0619 -0.043784 0)
(10.0649 -0.0431404 0)
(10.0671 -0.0425067 0)
(10.0686 -0.0419184 0)
(10.0695 -0.0413847 0)
(10.0698 -0.0409151 0)
(10.0697 -0.0405061 0)
(10.0692 -0.0401546 0)
(10.0685 -0.0398353 0)
(9.99473 -0.0305572 0)
(9.99926 -0.0228639 0)
(10.0147 -0.0026232 0)
(10.0304 -0.00188736 0)
(10.0435 -0.0116285 0)
(10.0534 -0.0208865 0)
(10.0595 -0.0272381 0)
(10.062 -0.0314605 0)
(10.0617 -0.0342316 0)
(10.0593 -0.0359264 0)
(10.0553 -0.0368585 0)
(10.05 -0.0372946 0)
(10.0438 -0.0374246 0)
(10.0368 -0.037368 0)
(10.0293 -0.037216 0)
(10.0213 -0.0370243 0)
(10.0132 -0.0368578 0)
(10.005 -0.0366846 0)
(10.0273 -0.182756 0)
(10.0763 -0.28831 0)
(10.0872 -0.247747 0)
(10.0777 -0.186508 0)
(10.0664 -0.140278 0)
(10.0538 -0.108198 0)
(10.0366 -0.0858547 0)
(10.0146 -0.0703921 0)
(9.98951 -0.0596204 0)
(9.96251 -0.0518442 0)
(9.93458 -0.046022 0)
(9.90629 -0.0415282 0)
(9.87815 -0.0379776 0)
(9.85048 -0.0351077 0)
(9.82352 -0.0327481 0)
(9.79736 -0.030836 0)
(9.77229 -0.0293276 0)
(9.74828 -0.0285191 0)
(9.93575 0.689321 0)
(9.86861 0.609607 0)
(9.76456 0.380631 0)
(9.6267 0.217452 0)
(9.486 0.11928 0)
(9.35737 0.0632038 0)
(9.24291 0.0315935 0)
(9.14143 0.0136346 0)
(9.05181 0.00328247 0)
(8.97291 -0.00277723 0)
(8.90308 -0.00633275 0)
(8.84096 -0.00845479 0)
(8.78531 -0.00970947 0)
(8.73525 -0.0104615 0)
(8.68985 -0.0109684 0)
(8.64851 -0.0112374 0)
(8.61032 -0.0114521 0)
(8.57495 -0.0121153 0)
(0.0119477 -0.0179103 -5.91972e-19)
(0.0325253 -0.0263985 2.98523e-19)
(0.0491214 -0.0245057 0)
(0.0645287 -0.0182344 0)
(0.0746789 -0.0101701 0)
(0.0786771 -0.0018448 -1.22312e-19)
(0.0771214 0.00571286 0)
(0.0707485 0.0119184 0)
(0.0602272 0.0166425 0)
(0.0463218 0.0198681 0)
(0.0300846 0.0218299 1.06467e-19)
(0.0117055 0.0236361 0)
(-0.00834016 0.0261918 0)
(-0.0296258 0.0312706 0)
(-0.0497534 0.0400926 0)
(-0.0734513 0.0360638 2.47401e-19)
(-0.105541 0.0140527 0)
(-0.128171 0.0125869 0)
(-0.161742 0.0180532 0)
(-0.201287 0.0272229 0)
(-0.244099 0.0372026 0)
(-0.291207 0.0458332 0)
(-0.342437 0.0532138 0)
(-0.397335 0.0575433 1.20938e-19)
(-0.455092 0.0588838 -1.11076e-19)
(-0.513898 0.0602868 1.0253e-19)
(-0.574299 0.0615936 9.50718e-20)
(-0.635956 0.0625748 0)
(-0.698505 0.0631267 0)
(-0.761497 0.0632271 -7.78576e-20)
(-0.824495 0.062879 -7.34644e-20)
(-0.887078 0.0621225 0)
(-0.94888 0.060993 0)
(-1.00958 0.0595516 -6.31898e-20)
(-1.06893 0.0578503 0)
(-1.12673 0.0559581 0)
(-1.18281 0.0539253 5.60183e-20)
(-1.2371 0.0518135 0)
(-1.28954 0.0496599 5.2397e-20)
(-1.34012 0.0475115 1.01688e-19)
(-1.38886 0.0453901 0)
(-1.43581 0.0433281 0)
(-1.48102 0.0413343 0)
(-1.52456 0.039429 0)
(-1.56652 0.0376107 0)
(-1.60699 0.0358899 8.77817e-20)
(-1.64604 0.0342586 8.60009e-20)
(-1.68376 0.0327224 8.43245e-20)
(-1.72022 0.0312707 0)
(-1.75552 0.0299059 -8.12246e-20)
(-1.78971 0.0286147 0)
(-1.82288 0.0273993 7.83927e-20)
(-1.85509 0.0262485 7.70548e-20)
(-1.88639 0.0251641 0)
(-1.91686 0.0241342 0)
(-1.94655 0.0231626 0)
(-1.9755 0.0222409 7.20767e-20)
(-2.00375 0.0213733 0)
(-2.03137 0.0205505 0)
(-2.05839 0.019778 0)
(-2.08486 0.0190502 0)
(-2.11082 0.0183732 0)
(-2.13631 0.017742 0)
(-2.16137 0.0171623 0)
(-2.18605 0.0166304 0)
(-2.21039 0.0161522 -6.19473e-20)
(-2.23444 0.0157254 0)
(-2.25825 0.0153545 0)
(-2.28185 0.0150383 5.86816e-20)
(-2.3053 0.0147796 5.75974e-20)
(-2.32865 0.0145785 0)
(-2.35195 0.0144357 -5.54368e-20)
(-2.37525 0.0143514 5.4361e-20)
(-2.39862 0.0143237 0)
(-2.4221 0.0143544 -5.222e-20)
(-2.44576 0.0144425 0)
(-2.46964 0.0145942 0)
(-2.49379 0.0148089 4.90483e-20)
(-2.51824 0.0150886 0)
(-2.54306 0.0154278 -4.69746e-20)
(-2.56827 0.0158319 0)
(-2.5939 0.016291 4.49502e-20)
(-2.61997 0.0168025 4.39625e-20)
(-2.6465 0.0173492 4.29932e-20)
(-2.6735 0.0179308 8.40927e-20)
(-2.70097 0.0185311 -8.22468e-20)
(-2.72888 0.0191456 0)
(-2.75719 0.0197511 0)
(-2.78582 0.0203417 0)
(-2.81473 0.0208702 -7.54387e-20)
(-2.84397 0.0212941 -7.38848e-20)
(-2.87343 0.0215963 7.23928e-20)
(-2.90299 0.0217585 0)
(-2.93249 0.021778 -6.95994e-20)
(-2.96177 0.02164 -6.83007e-20)
(-2.99066 0.0213292 -6.70708e-20)
(-3.01896 0.0207886 0)
(-3.04644 0.0198727 0)
(-3.07266 0.0179714 0)
(-3.09712 0.0165142 -6.28646e-20)
(-3.12 0.0171363 0)
(-3.14131 0.0158468 0)
(-3.16006 0.013947 6.0597e-20)
(-3.17603 0.0123715 0)
(-3.18846 0.0110081 0)
(-3.19758 0.0102455 5.89377e-20)
(-3.20258 0.0084791 0)
(-3.20404 0.00678068 0)
(-3.20156 0.00415908 -5.74423e-20)
(-3.19477 0.00247027 -5.67975e-20)
(-3.18416 0.00171232 0)
(-3.16916 -0.000688862 5.56912e-20)
(-3.14942 -0.00279774 0)
(-3.12501 -0.00474394 -5.41064e-20)
(-3.09529 -0.00783205 0)
(-3.06017 -0.0106401 -5.1916e-20)
(-3.01968 -0.0127684 -5.04859e-20)
(-2.9739 -0.0152092 0)
(-2.92231 -0.0187063 0)
(-2.86481 -0.021974 0)
(-2.80185 -0.0250236 0)
(-2.73309 -0.0285949 0)
(-2.65865 -0.0321375 0)
(-2.57854 -0.0357894 0)
(-2.49281 -0.0394766 -2.59258e-20)
(-2.40162 -0.0431994 2.02804e-20)
(-2.30519 -0.0469012 0)
(-2.20379 -0.0505701 0)
(-2.09772 -0.0541479 0)
(-1.98731 -0.0576215 0)
(-1.87294 -0.0609454 -4.2937e-20)
(-1.75501 -0.0641042 0)
(-1.63394 -0.0670681 9.23167e-20)
(-1.51018 -0.0698253 -1.21343e-19)
(-1.38416 -0.0723638 0)
(-1.25634 -0.0746993 0)
(-1.12716 -0.0768435 0)
(-0.997047 -0.0788056 2.74814e-19)
(-0.866427 -0.0806095 3.25234e-19)
(-0.735691 -0.0822816 0)
(-0.605193 -0.083834 4.465e-19)
(-0.475346 -0.0852232 5.20273e-19)
(-0.346258 -0.0864564 -6.05353e-19)
(-0.21863 -0.0877381 0)
(-0.0910697 -0.0879267 0)
(0.0390907 -0.0856044 -7.65242e-19)
(0.168311 -0.0817195 0)
(0.294415 -0.0775124 0)
(0.417057 -0.0733596 0)
(0.535797 -0.0693422 0)
(0.650443 -0.0654921 6.39293e-19)
(0.760878 -0.061796 6.23767e-19)
(0.86708 -0.0582649 0)
(0.969057 -0.0549323 5.97633e-19)
(1.06686 -0.0517671 0)
(1.16054 -0.0487283 0)
(1.25023 -0.0458566 5.67042e-19)
(1.33604 -0.0431632 0)
(1.41807 -0.0406183 5.50393e-19)
(1.49645 -0.0382098 0)
(1.57127 -0.0359298 0)
(1.6427 -0.0337759 5.2968e-19)
(1.71085 -0.0317481 0)
(1.77586 -0.0298358 5.18006e-19)
(1.83783 -0.0280242 0)
(1.89688 -0.0263114 0)
(1.95312 -0.0246946 0)
(2.00662 -0.0231564 -4.98699e-19)
(2.05748 -0.0216924 0)
(2.10576 -0.0202943 4.90799e-19)
(2.15146 -0.0189372 0)
(2.19456 -0.0175947 0)
(2.23491 -0.0162448 0)
(2.27223 -0.0148173 0)
(2.30605 -0.0132107 0)
(2.33496 -0.0112348 0)
(2.35828 -0.00819584 0)
(2.36535 -0.00237663 -9.61771e-19)
(2.35903 0.010947 0)
(2.24621 0.0298925 0)
(0.0113168 -0.0666591 1.33453e-18)
(0.0282347 -0.0651434 -5.6865e-19)
(0.0347456 -0.049364 0)
(0.038637 -0.0329767 1.66307e-19)
(0.0386728 -0.0167566 0)
(0.0348958 -0.0012141 6.36603e-20)
(0.0276807 0.0131138 -1.19433e-19)
(0.0170173 0.0258337 -1.15679e-19)
(0.00273081 0.0367822 0)
(-0.015242 0.0461153 -1.15179e-19)
(-0.0370779 0.0540297 -5.77002e-20)
(-0.0628013 0.0603936 0)
(-0.0920805 0.0662285 0)
(-0.124539 0.0729823 0)
(-0.15954 0.0811043 0)
(-0.200982 0.0887075 -6.70701e-20)
(-0.248435 0.0940022 0)
(-0.299436 0.101732 1.25189e-19)
(-0.351599 0.111716 0)
(-0.404481 0.122765 0)
(-0.458283 0.133283 -9.92337e-20)
(-0.513509 0.141942 0)
(-0.570347 0.148722 8.68116e-20)
(-0.629199 0.154053 -4.13566e-20)
(-0.689542 0.157779 3.94547e-20)
(-0.75026 0.160168 -3.77001e-20)
(-0.810953 0.161488 -3.60758e-20)
(-0.871152 0.161728 0)
(-0.930475 0.160868 0)
(-0.988622 0.158967 3.19181e-20)
(-1.04536 0.156127 -3.05075e-20)
(-1.10052 0.152495 0)
(-1.15399 0.148216 0)
(-1.2057 0.143448 2.78017e-20)
(-1.25563 0.138331 0)
(-1.30376 0.133006 0)
(-1.35014 0.127586 -2.55239e-20)
(-1.39481 0.122177 0)
(-1.43782 0.116851 2.40898e-20)
(-1.47925 0.111677 -4.74787e-20)
(-1.51918 0.106692 0)
(-1.55768 0.101932 0)
(-1.59483 0.0974085 -8.88815e-20)
(-1.63073 0.0931365 -8.72241e-20)
(-1.66543 0.0891112 -8.56617e-20)
(-1.69902 0.0853337 4.19312e-20)
(-1.73156 0.0817901 -4.15432e-20)
(-1.76313 0.0784754 -1.22303e-19)
(-1.79378 0.0753718 8.01518e-20)
(-1.82357 0.0724718 3.95947e-20)
(-1.85256 0.0697562 0)
(-1.8808 0.067217 -3.84076e-20)
(-1.90835 0.0648367 3.76015e-20)
(-1.93523 0.0626094 0)
(-1.96151 0.060519 0)
(-1.98723 0.0585615 0)
(-2.01241 0.0567246 -3.56783e-20)
(-2.03711 0.0550072 0)
(-2.06135 0.0533987 6.91197e-20)
(-2.08518 0.0518988 0)
(-2.10863 0.0504995 6.71049e-20)
(-2.13173 0.0492028 0)
(-2.15452 0.0480024 -6.51078e-20)
(-2.17705 0.0469006 0)
(-2.19933 0.0458928 6.31177e-20)
(-2.22142 0.0449816 -3.10098e-20)
(-2.24335 0.0441642 0)
(-2.26516 0.0434429 -6.01302e-20)
(-2.28689 0.0428155 -2.96106e-20)
(-2.30857 0.0422826 -2.91105e-20)
(-2.33025 0.0418436 0)
(-2.35197 0.0414973 -2.80277e-20)
(-2.37376 0.0412424 -2.76182e-20)
(-2.39567 0.0410734 0)
(-2.41772 0.0409866 2.66334e-20)
(-2.43997 0.040974 -5.21905e-20)
(-2.46242 0.0410341 0)
(-2.48512 0.041158 -2.51802e-20)
(-2.50807 0.0413398 0)
(-2.53129 0.0415639 7.25704e-20)
(-2.5548 0.0418271 0)
(-2.57858 0.0421141 -6.97864e-20)
(-2.60265 0.0424186 -2.28656e-20)
(-2.62697 0.042717 2.2245e-20)
(-2.65153 0.0430023 4.36037e-20)
(-2.67627 0.0432519 -4.27393e-20)
(-2.70117 0.0434599 0)
(-2.72613 0.0436085 0)
(-2.75104 0.0436962 0)
(-2.77581 0.0436873 1.19827e-19)
(-2.80038 0.0435285 3.94514e-20)
(-2.82464 0.04318 -3.87949e-20)
(-2.84844 0.0426123 0)
(-2.87163 0.0418141 -3.68805e-20)
(-2.89402 0.0407543 3.70025e-20)
(-2.91544 0.0394151 3.64633e-20)
(-2.93567 0.0377605 0)
(-2.9545 0.0357759 0)
(-2.97188 0.0334324 0)
(-2.98773 0.0307064 3.46138e-20)
(-3.0016 0.0276062 0)
(-3.01334 0.0242042 -6.74786e-20)
(-3.02299 0.0204136 -1.00677e-19)
(-3.03038 0.0162194 6.65169e-20)
(-3.03555 0.0117281 0)
(-3.03818 0.00700574 3.25064e-20)
(-3.03833 0.00223666 0)
(-3.03511 -0.00265119 6.47265e-20)
(-3.02827 -0.00764696 -3.19207e-20)
(-3.01764 -0.0128744 -3.16722e-20)
(-3.00259 -0.0183364 0)
(-2.98294 -0.0239012 -9.47761e-20)
(-2.95879 -0.0297565 6.23242e-20)
(-2.92954 -0.0358225 3.10074e-20)
(-2.89517 -0.0419337 0)
(-2.85564 -0.0481897 2.99214e-20)
(-2.81061 -0.0545476 8.75188e-20)
(-2.75981 -0.0609811 0)
(-2.7032 -0.0672779 5.51136e-20)
(-2.64098 -0.0735765 5.2889e-20)
(-2.57288 -0.0799185 5.03847e-20)
(-2.49889 -0.08614 0)
(-2.41913 -0.0922471 0)
(-2.33354 -0.098172 0)
(-2.24221 -0.103812 -1.83211e-20)
(-2.14531 -0.109174 -1.47057e-20)
(-2.04306 -0.114196 0)
(-1.93573 -0.11887 -1.87027e-20)
(-1.82364 -0.123143 -1.17725e-20)
(-1.70714 -0.126998 0)
(-1.58662 -0.130393 6.33542e-21)
(-1.46253 -0.13332 2.62368e-20)
(-1.33531 -0.135754 -2.5383e-20)
(-1.20542 -0.137701 -3.04547e-20)
(-1.07335 -0.139164 0)
(-0.939578 -0.140167 0)
(-0.804571 -0.140735 0)
(-0.668796 -0.140908 -8.48787e-20)
(-0.532702 -0.140727 9.18683e-20)
(-0.396683 -0.140237 2.1934e-19)
(-0.26111 -0.139497 -1.28309e-19)
(-0.126038 -0.138627 1.35302e-19)
(0.00880182 -0.137768 1.53227e-19)
(0.142524 -0.137079 0)
(0.273345 -0.135697 0)
(0.400244 -0.132587 -1.68939e-19)
(0.523241 -0.128123 0)
(0.642888 -0.123067 0)
(0.759282 -0.11778 3.83222e-19)
(0.872261 -0.112434 0)
(0.981683 -0.107118 2.00148e-19)
(1.08745 -0.10189 -2.09949e-19)
(1.18951 -0.0967813 0)
(1.28784 -0.0918316 2.142e-19)
(1.38247 -0.087055 0)
(1.47341 -0.0824552 0)
(1.56076 -0.0780487 -2.28695e-19)
(1.64455 -0.0738486 4.5956e-19)
(1.72485 -0.0698303 -2.34013e-19)
(1.80179 -0.0659962 0)
(1.87545 -0.0623466 0)
(1.94596 -0.0588886 2.37802e-19)
(2.01342 -0.0556113 0)
(2.07794 -0.0524976 2.41481e-19)
(2.13961 -0.0495339 0)
(2.19854 -0.0467179 0)
(2.25482 -0.0440383 0)
(2.30853 -0.0414788 2.48915e-19)
(2.35975 -0.0390252 0)
(2.40852 -0.0366538 -2.5093e-19)
(2.45485 -0.0343235 0)
(2.49871 -0.0319801 0)
(2.53997 -0.0295416 5.06177e-19)
(2.57837 -0.0268802 -5.0825e-19)
(2.61347 -0.0237411 0)
(2.64433 -0.0197164 0)
(2.67001 -0.0135593 0)
(2.68707 -0.00283197 1.57514e-18)
(2.70409 0.0189621 0)
(2.69254 0.0585602 -1.08943e-18)
(0.00311953 -0.0954039 -1.02209e-21)
(0.0103018 -0.0773383 5.78234e-19)
(0.0078137 -0.0507458 0)
(0.00321096 -0.0263671 -2.48833e-19)
(-0.00444654 -0.00355989 0)
(-0.0150026 0.0179548 0)
(-0.028288 0.0381851 7.6357e-23)
(-0.0443994 0.0571242 7.95106e-20)
(-0.0635849 0.0747779 7.67965e-20)
(-0.0861064 0.0912068 7.5368e-20)
(-0.112166 0.106343 0)
(-0.141893 0.120228 0)
(-0.175338 0.133494 -7.20487e-20)
(-0.212182 0.146883 -1.42208e-19)
(-0.252065 0.16054 1.40459e-19)
(-0.295303 0.17366 0)
(-0.341883 0.185757 1.34013e-19)
(-0.391201 0.198108 -6.4434e-20)
(-0.442063 0.210543 0)
(-0.493499 0.222385 1.16536e-19)
(-0.544948 0.232901 5.55047e-20)
(-0.5966 0.24169 -1.05713e-19)
(-0.648819 0.248645 -5.07206e-20)
(-0.701387 0.253621 0)
(-0.753904 0.256642 9.34849e-20)
(-0.806143 0.257779 8.99766e-20)
(-0.857856 0.257178 0)
(-0.90877 0.254964 8.3528e-20)
(-0.958686 0.251287 0)
(-1.00748 0.246327 7.78689e-20)
(-1.05508 0.240288 3.77691e-20)
(-1.10143 0.233387 0)
(-1.14651 0.225836 0)
(-1.19031 0.217837 0)
(-1.23284 0.209567 0)
(-1.27412 0.201187 0)
(-1.31417 0.19283 0)
(-1.35301 0.184608 6.21744e-20)
(-1.39069 0.176605 -9.12894e-20)
(-1.42722 0.168886 0)
(-1.46265 0.161493 0)
(-1.49703 0.154456 0)
(-1.53037 0.147786 1.834e-22)
(-1.56274 0.141488 5.52851e-20)
(-1.59417 0.135557 1.08488e-19)
(-1.6247 0.129984 -1.06678e-19)
(-1.65438 0.124753 -5.23938e-20)
(-1.68324 0.119849 5.17283e-20)
(-1.71132 0.115254 -1.52767e-22)
(-1.73867 0.110949 5.00156e-20)
(-1.76531 0.106915 0)
(-1.7913 0.103135 4.85604e-20)
(-1.81667 0.0995914 -1.29421e-22)
(-1.84144 0.0962693 0)
(-1.86567 0.0931537 0)
(-1.88937 0.0902335 -4.58519e-20)
(-1.91258 0.0874971 0)
(-1.93534 0.0849368 0)
(-1.95767 0.082544 4.38314e-20)
(-1.97961 0.0803131 8.65919e-20)
(-2.00118 0.0782383 -4.2754e-20)
(-2.02242 0.0763167 0)
(-2.04336 0.0745445 4.14977e-20)
(-2.06402 0.0729198 0)
(-2.08444 0.0714404 4.01082e-20)
(-2.10466 0.0701052 3.96222e-20)
(-2.1247 0.0689133 -7.78669e-20)
(-2.1446 0.0678636 -3.8248e-20)
(-2.1644 0.0669551 0)
(-2.18412 0.0661855 7.41285e-20)
(-2.2038 0.0655532 0)
(-2.22347 0.0650541 1.0752e-19)
(-2.24317 0.0646845 7.03948e-20)
(-2.26293 0.0644368 6.91556e-20)
(-2.28279 0.0643043 -6.79212e-20)
(-2.30276 0.0642767 1.00116e-19)
(-2.32288 0.0643462 0)
(-2.34317 0.0644989 0)
(-2.36364 0.0647216 -6.30626e-20)
(-2.38431 0.0649945 -9.29107e-20)
(-2.40519 0.065303 0)
(-2.42627 0.0656243 2.98841e-20)
(-2.44755 0.0659393 0)
(-2.46902 0.06622 -8.60834e-20)
(-2.49066 0.066446 -2.59969e-22)
(-2.51242 0.0665867 2.76631e-22)
(-2.53427 0.06662 5.41444e-20)
(-2.55614 0.0665181 0)
(-2.57794 0.0662594 -5.22028e-20)
(-2.59959 0.0658013 -3.52823e-22)
(-2.62103 0.0650913 0)
(-2.64217 0.0640822 0)
(-2.66291 0.0627438 0)
(-2.68311 0.0610481 4.84489e-20)
(-2.70263 0.0589673 0)
(-2.72132 0.0564674 0)
(-2.73903 0.0535144 0)
(-2.75562 0.0500743 0)
(-2.77096 0.0461234 0)
(-2.78491 0.0417483 4.45546e-20)
(-2.79717 0.037051 0)
(-2.80753 0.0318699 4.42424e-20)
(-2.81597 0.0261459 4.39243e-20)
(-2.82222 0.019988 -4.36527e-20)
(-2.8261 0.0134587 0)
(-2.82721 0.00656178 -4.30741e-20)
(-2.82529 -0.000780269 0)
(-2.82002 -0.00855083 -4.24746e-20)
(-2.81109 -0.0167209 4.22e-20)
(-2.79839 -0.0252101 1.25043e-19)
(-2.78137 -0.0340079 0)
(-2.75996 -0.0431248 1.23012e-19)
(-2.73395 -0.0526033 4.03124e-20)
(-2.70296 -0.0623634 0)
(-2.66697 -0.0723307 7.8681e-20)
(-2.62574 -0.0824596 7.71621e-20)
(-2.57906 -0.0926776 -1.13008e-19)
(-2.52675 -0.102978 0)
(-2.46868 -0.113264 -3.53082e-20)
(-2.40495 -0.123445 -3.37999e-20)
(-2.33532 -0.133565 -9.68477e-20)
(-2.2599 -0.143496 0)
(-2.1787 -0.153168 0)
(-2.09171 -0.162489 0)
(-1.99905 -0.171349 -2.37023e-20)
(-1.90088 -0.179688 0)
(-1.79742 -0.187435 0)
(-1.68897 -0.194536 1.15255e-20)
(-1.57584 -0.200927 7.21311e-21)
(-1.45842 -0.206563 0)
(-1.33711 -0.211394 0)
(-1.21236 -0.215393 -1.57724e-20)
(-1.08464 -0.218538 0)
(-0.954432 -0.220828 3.93493e-20)
(-0.822232 -0.222277 4.85546e-20)
(-0.68853 -0.222917 0)
(-0.553812 -0.222794 0)
(-0.418546 -0.221964 -8.95808e-20)
(-0.283172 -0.2205 -4.17497e-21)
(-0.148057 -0.218509 -4.30183e-21)
(-0.0133822 -0.216128 0)
(0.120259 -0.213322 -2.91278e-19)
(0.252044 -0.209893 0)
(0.381418 -0.205835 0)
(0.507826 -0.201225 0)
(0.630847 -0.195947 1.88924e-19)
(0.750433 -0.189911 0)
(0.866692 -0.183299 -4.07909e-19)
(0.979599 -0.176341 -2.16311e-19)
(1.08906 -0.169205 0)
(1.19497 -0.162 -2.32632e-19)
(1.29728 -0.154815 0)
(1.39596 -0.147708 0)
(1.491 -0.140738 -7.56777e-19)
(1.58241 -0.133941 5.15668e-19)
(1.67025 -0.127335 0)
(1.75459 -0.120942 5.39067e-19)
(1.83546 -0.114796 -2.76886e-19)
(1.91299 -0.108894 0)
(1.98727 -0.103237 0)
(2.05843 -0.0978246 0)
(2.12655 -0.0926634 -8.79238e-19)
(2.19174 -0.0877458 0)
(2.25412 -0.0830536 -3.01212e-19)
(2.31377 -0.0785742 0)
(2.37082 -0.0743008 0)
(2.42533 -0.0702172 0)
(2.4774 -0.066305 0)
(2.5271 -0.0625427 0)
(2.57447 -0.0588887 0)
(2.61952 -0.0552854 -6.375e-19)
(2.66223 -0.0516511 0)
(2.70249 -0.0478593 -3.23995e-19)
(2.74008 -0.0437153 9.76884e-19)
(2.77466 -0.0388771 0)
(2.80554 -0.0327452 0)
(2.83214 -0.0240342 -6.67312e-19)
(2.85211 -0.0105094 -6.78224e-19)
(2.87028 0.0134131 6.815e-19)
(2.87564 0.0576532 7.04628e-19)
(-0.00672091 -0.0983323 -1.77216e-18)
(-0.0087338 -0.0674899 -7.03048e-19)
(-0.0185313 -0.0351725 -2.70884e-19)
(-0.0302532 -0.00562978 -9.89581e-20)
(-0.0441483 0.0220326 0)
(-0.0601447 0.0483314 1.41963e-19)
(-0.078265 0.073494 -6.47248e-20)
(-0.0986378 0.0976149 0)
(-0.121443 0.120726 -5.81864e-20)
(-0.146832 0.142811 0)
(-0.17492 0.163804 1.09333e-19)
(-0.205832 0.18371 0)
(-0.239593 0.202738 5.22488e-20)
(-0.276013 0.221116 1.02035e-19)
(-0.314804 0.238853 -9.94583e-20)
(-0.355754 0.255647 0)
(-0.39868 0.271244 -9.36261e-20)
(-0.443254 0.285796 0)
(-0.48893 0.299234 0)
(-0.535158 0.311296 -8.37564e-20)
(-0.581542 0.321653 0)
(-0.627866 0.330052 1.18916e-22)
(-0.674008 0.336306 0)
(-0.719831 0.34026 0)
(-0.765186 0.341878 -4.14995e-23)
(-0.809976 0.341274 -6.6776e-20)
(-0.854109 0.338631 -6.44228e-20)
(-0.89751 0.334167 -6.22949e-20)
(-0.940117 0.328131 0)
(-0.981881 0.320773 -1.16758e-19)
(-1.02278 0.31234 0)
(-1.06278 0.303073 -5.49675e-20)
(-1.10189 0.293198 0)
(-1.1401 0.28292 0)
(-1.17739 0.272426 5.06849e-20)
(-1.21378 0.261875 0)
(-1.24926 0.251403 -4.82913e-20)
(-1.28385 0.241121 -6.93987e-23)
(-1.31754 0.231114 9.24838e-20)
(-1.35035 0.221447 -9.05273e-20)
(-1.38228 0.212166 0)
(-1.41336 0.203301 0)
(-1.4436 0.194866 -4.26895e-20)
(-1.47301 0.186869 0)
(-1.50163 0.179305 -4.13685e-20)
(-1.52948 0.172167 4.0692e-20)
(-1.55657 0.16544 4.0045e-20)
(-1.58295 0.159108 0)
(-1.60863 0.153151 -3.88261e-20)
(-1.63364 0.14755 -3.82484e-20)
(-1.65802 0.142285 7.52728e-20)
(-1.68178 0.137335 -3.71436e-20)
(-1.70497 0.132683 -3.66122e-20)
(-1.7276 0.128311 0)
(-1.74971 0.124202 0)
(-1.77132 0.120343 3.50791e-20)
(-1.79246 0.116721 0)
(-1.81315 0.113326 0)
(-1.83343 0.110148 -6.72137e-20)
(-1.85331 0.107181 -6.62481e-20)
(-1.87283 0.104419 0)
(-1.89201 0.101856 0)
(-1.91088 0.099489 0)
(-1.92947 0.0973157 0)
(-1.94781 0.0953336 -6.14679e-20)
(-1.96592 0.0935411 6.04524e-20)