/*--------------------------------*- C++ -*----------------------------------*\
  =========                 |
  \\      /  F ield         | OpenFOAM: The Open Source CFD Toolbox
   \\    /   O peration     | Website:  https://openfoam.org
    \\  /    A nd           | Version:  8
     \\/     M anipulation  |
\*---------------------------------------------------------------------------*/
FoamFile
{
    version     2.0;
    format      ascii;
    class       volScalarField;
    location    "100";
    object      upod_2;
}
// * * * * * * * * * * * * * * * * * * * * * * * * * * * * * * * * * * * * * //

dimensions      [0 1 -1 0 0 0 0];

internalField   nonuniform List<scalar> 
12225
(
-0.00494834
-0.0017591
-0.0015865
-0.000135526
0.000283826
0.000414304
0.000514295
0.000715722
0.00102855
0.00136163
0.0016791
0.0018731
0.00195631
0.00171398
0.00152636
-0.00118588
-0.00224876
-0.00724456
-0.00499023
-0.002677
-0.00218658
-0.000267818
0.00110438
0.00219648
0.00304885
0.00375552
0.00424131
0.00462565
0.00502862
0.00501414
0.00490966
0.00454927
0.0037725
0.00303935
0.000124097
-0.00245459
-0.00472939
-0.00321441
-0.00247753
-0.000684921
0.000605635
0.00167489
0.0025328
0.00325485
0.00378754
0.00424556
0.00465612
0.0047331
0.00467063
0.00439122
0.0038007
0.00318696
0.00130061
-0.00165905
-0.00453067
-0.00355237
-0.00269553
-0.000948192
0.000285419
0.00131158
0.00213814
0.00283174
0.00336554
0.00383694
0.00421481
0.00436998
0.00436903
0.00418652
0.00374057
0.00322013
0.00210785
0.000133978
-0.00438438
-0.0037
-0.00292723
-0.00122536
-2.31834e-05
0.000982959
0.00179295
0.00246593
0.00299476
0.00345254
0.00380187
0.00398649
0.00402026
0.00389708
0.00355656
0.00312883
0.00242315
0.00149423
-0.00427952
-0.00374546
-0.00319061
-0.00157166
-0.000410304
0.000581967
0.00138636
0.00205436
0.00257666
0.00302064
0.00335247
0.00354809
0.00359753
0.00350559
0.00324571
0.00291409
0.0024852
0.00212794
-0.00422206
-0.00374095
-0.00346966
-0.00198745
-0.00089636
6.84743e-05
0.000863242
0.00152598
0.00203835
0.00247295
0.00279272
0.00299058
0.00304365
0.0029708
0.00277926
0.0025394
0.00232666
0.00227058
-0.00417006
-0.00376276
-0.00375069
-0.00244573
-0.00145913
-0.000548152
0.000217637
0.000862789
0.0013603
0.00178541
0.0020904
0.00227676
0.00233302
0.0022859
0.00215994
0.00200037
0.00197305
0.00206873
-0.0041102
-0.00381794
-0.00400764
-0.00290166
-0.002054
-0.00122568
-0.000510758
0.000105194
0.000578012
0.000976797
0.00126249
0.00143442
0.00149774
0.00148144
0.00141208
0.00132868
0.00143586
0.00161588
-0.00406055
-0.00389366
-0.00423196
-0.00332204
-0.00262818
-0.00189675
-0.00123992
-0.000661701
-0.000225254
0.00013569
0.000398633
0.00055932
0.000630428
0.000640965
0.000610418
0.000593987
0.000790525
0.00101156
-0.00403437
-0.00402081
-0.00437869
-0.00360607
-0.00304869
-0.00241287
-0.00182018
-0.00129206
-0.000881565
-0.000546934
-0.000304302
-0.000155625
-8.23902e-05
-6.10445e-05
-6.84315e-05
-4.72683e-05
0.000186137
0.000439724
-0.00407231
-0.00380526
-0.0039422
-0.00332869
-0.00296354
-0.0025046
-0.00208481
-0.00173163
-0.00146503
-0.00126078
-0.0011346
-0.00108223
-0.00108747
-0.00113497
-0.00118611
-0.0012186
-0.00104053
-0.000924461
-0.00399738
-0.00364822
-0.00365793
-0.00307618
-0.00294634
-0.00274761
-0.00259187
-0.00249605
-0.0024666
-0.00247789
-0.00253449
-0.00263701
-0.00277422
-0.00292765
-0.00305689
-0.0031828
-0.00303977
-0.00319246
-0.00380111
-0.00387664
-0.00415798
-0.00367613
-0.00369351
-0.0036577
-0.00367765
-0.00375532
-0.00390554
-0.00408652
-0.00429107
-0.00451929
-0.00474933
-0.00496581
-0.00514331
-0.00530534
-0.00511694
-0.00531901
-0.00357501
-0.00385164
-0.00464851
-0.00458046
-0.00485096
-0.00500665
-0.00518624
-0.00540623
-0.00567838
-0.00596596
-0.00626218
-0.00655977
-0.00683275
-0.00706866
-0.00724408
-0.00738721
-0.00712888
-0.00732538
-0.00340697
-0.00357517
-0.00469361
-0.00511614
-0.00577544
-0.00624388
-0.00664984
-0.00703889
-0.00742702
-0.00779909
-0.00815028
-0.00847351
-0.0087468
-0.00895985
-0.00909782
-0.00919655
-0.00886074
-0.00897865
-0.00333935
-0.00321489
-0.00435838
-0.00509674
-0.00607777
-0.00684181
-0.00748392
-0.00805861
-0.00858214
-0.00905421
-0.00946902
-0.00981097
-0.0100752
-0.0102625
-0.0103632
-0.0104358
-0.0100407
-0.0101581
-0.00336394
-0.00286676
-0.00389508
-0.00475381
-0.00590865
-0.00685893
-0.00766743
-0.00838849
-0.00902094
-0.00955967
-0.0100098
-0.0103693
-0.0106317
-0.0108003
-0.0108785
-0.0109316
-0.010487
-0.0106242
-0.00338132
-0.00269779
-0.00359174
-0.00441181
-0.00558093
-0.00657222
-0.00742173
-0.00815438
-0.00876845
-0.00927003
-0.00966842
-0.0099704
-0.0101751
-0.0102918
-0.0103268
-0.0103442
-0.00987584
-0.0100315
-0.00346051
-0.00293428
-0.00367059
-0.00413605
-0.00498896
-0.00569443
-0.00629901
-0.00681387
-0.00724429
-0.00759289
-0.00786371
-0.00806038
-0.00818771
-0.00825298
-0.00825953
-0.00826497
-0.00784609
-0.00796488
-0.0034958
-0.00317025
-0.00390263
-0.00416367
-0.00478443
-0.00524977
-0.00563221
-0.00594978
-0.00621067
-0.00641631
-0.00656671
-0.00666096
-0.00670215
-0.00669862
-0.00664891
-0.00660675
-0.00619513
-0.00623137
-0.00354479
-0.00338077
-0.00413329
-0.00422611
-0.00462614
-0.00485262
-0.00501335
-0.00512558
-0.00520713
-0.00524911
-0.00525174
-0.00521661
-0.00514581
-0.00504759
-0.00491975
-0.00480637
-0.00437795
-0.00434514
-0.00362317
-0.00357619
-0.00429651
-0.00415907
-0.00428811
-0.00424276
-0.00415518
-0.00403981
-0.00391861
-0.00377488
-0.00360985
-0.00342864
-0.00323642
-0.00303315
-0.00282441
-0.00263035
-0.00218479
-0.00205148
-0.00373567
-0.00372994
-0.00431028
-0.00385933
-0.00367614
-0.00334944
-0.00300843
-0.00266719
-0.00234803
-0.00202868
-0.00171032
-0.00140038
-0.00110018
-0.000809535
-0.000531881
-0.000279373
0.000163363
0.000344106
-0.00387396
-0.0038177
-0.00412777
-0.0033193
-0.00283165
-0.00226529
-0.00171808
-0.00120666
-0.000736491
-0.000284289
0.000144693
0.000550415
0.00093417
0.00129435
0.00163215
0.00193638
0.00237472
0.00263129
-0.00401772
-0.00382614
-0.00377166
-0.00266502
-0.00194937
-0.00122642
-0.000551202
5.52753e-05
0.000624566
0.00116614
0.00167544
0.00215376
0.00260367
0.0030225
0.00342039
0.00377959
0.00421965
0.00458286
-0.0041702
-0.00374626
-0.00334331
-0.00205354
-0.00120358
-0.000389425
0.000358652
0.00104294
0.00167837
0.00227303
0.00284782
0.00337633
0.00387017
0.00434321
0.00478812
0.00517731
0.00563559
0.00604807
-0.00436527
-0.00350923
-0.00295773
-0.00156869
-0.000609887
0.000305213
0.00114051
0.00194625
0.0026297
0.00327321
0.00394241
0.00449424
0.00501057
0.00555414
0.00601162
0.00640694
0.00688238
0.00736764
-0.0046844
-0.00332595
-0.00273364
-0.00110332
7.68011e-05
0.00119387
0.00218753
0.00320055
0.00393545
0.00463887
0.00547039
0.00601037
0.00653434
0.00720881
0.00763147
0.00797976
0.00854068
0.00911512
-0.00445224
-0.00274104
-0.00181866
-0.00016899
0.000690747
0.00145881
0.0021643
0.00289762
0.00352536
0.00415303
0.00479711
0.00534054
0.00587062
0.00641204
0.00687538
0.00729614
0.00783805
0.00859421
0.000857089
0.0018538
0.00254984
0.00312358
0.00338211
0.00321383
0.00271132
0.00196469
0.000967496
-0.000185099
-0.00150324
-0.00293626
-0.00442691
-0.00598235
-0.00758623
-0.00923225
-0.0109367
-0.0126859
-0.0144793
-0.0162732
-0.018071
-0.0198088
-0.021445
-0.0230993
-0.0246414
-0.0260813
-0.0274093
-0.0286177
-0.0297091
-0.0306774
-0.031532
-0.032278
-0.0329283
-0.0334814
-0.0339504
-0.0343405
-0.0346589
-0.0349097
-0.0350981
-0.0352275
-0.0353009
-0.0353224
-0.0352903
-0.0352094
-0.0350795
-0.0349033
-0.0346761
-0.0344055
-0.0340858
-0.0337229
-0.0333076
-0.0328554
-0.0323542
-0.0318136
-0.0312273
-0.0306066
-0.0299339
-0.0292231
-0.0284721
-0.0276865
-0.0268579
-0.0259992
-0.0251052
-0.02418
-0.0232158
-0.0222323
-0.0212139
-0.0201703
-0.0190977
-0.0180089
-0.0168911
-0.0157589
-0.0146091
-0.0134436
-0.0122545
-0.0110727
-0.00986498
-0.00866258
-0.00745105
-0.00625366
-0.00505114
-0.00386521
-0.00268662
-0.00152339
-0.000374609
0.000764968
0.00187311
0.00294714
0.00398878
0.00497663
0.00593768
0.00686047
0.00776028
0.00861599
0.00942774
0.0101956
0.0109004
0.0115696
0.0121654
0.0127234
0.0132139
0.0136574
0.0140302
0.0143647
0.0146245
0.0148333
0.0149955
0.015079
0.0151146
0.0150994
0.0150179
0.0148961
0.0147155
0.0144885
0.0142051
0.0139007
0.0135375
0.013143
0.012725
0.0122584
0.0117728
0.011252
0.0107104
0.0101603
0.00958361
0.00899731
0.00839758
0.00779982
0.00719804
0.00656974
0.00595688
0.00533058
0.00475474
0.00413749
0.0035796
0.0029893
0.00244042
0.0019128
0.0014039
0.0008795
0.000394289
-0.000109188
-0.000546446
-0.000996016
-0.00139208
-0.00177339
-0.00215118
-0.00248686
-0.00280388
-0.00309453
-0.00340663
-0.00364246
-0.00386949
-0.00409514
-0.00433513
-0.0044871
-0.00467504
-0.00480806
-0.00491916
-0.00510517
-0.0051772
-0.00530433
-0.00535167
-0.00546315
-0.00550271
-0.00557455
-0.00563758
-0.00563915
-0.00571235
-0.00577171
-0.00579528
-0.00578862
-0.00590051
-0.00585925
-0.00593197
-0.00601075
-0.00607451
-0.00626046
-0.00631862
-0.00618896
0.000241534
0.000711603
0.000664535
0.000212758
-0.00051651
-0.00151266
-0.00271951
-0.00408299
-0.00556531
-0.00714735
-0.00880384
-0.0105173
-0.0122679
-0.0140375
-0.0158004
-0.0175375
-0.0192168
-0.0208371
-0.0223788
-0.0238213
-0.0251678
-0.0263966
-0.0275008
-0.0284756
-0.0293292
-0.0300729
-0.0307076
-0.0312494
-0.0317019
-0.0320813
-0.0323891
-0.0326377
-0.0328303
-0.0329786
-0.0330767
-0.0331393
-0.0331602
-0.0331464
-0.0330972
-0.0330098
-0.0328932
-0.0327356
-0.0325438
-0.0323134
-0.0320509
-0.0317447
-0.031402
-0.0310255
-0.0306034
-0.030149
-0.029653
-0.0291221
-0.0285521
-0.0279473
-0.0273027
-0.0266226
-0.0259046
-0.0251579
-0.0243751
-0.0235502
-0.0227087
-0.0218272
-0.0209215
-0.0199776
-0.0190163
-0.0180268
-0.0170135
-0.0159811
-0.0149185
-0.0138475
-0.0127608
-0.0116542
-0.0105409
-0.0094057
-0.008259
-0.00711297
-0.00595863
-0.00480682
-0.00364667
-0.00250772
-0.00135086
-0.000213617
0.000902062
0.00201436
0.00309702
0.00417349
0.00521421
0.00623207
0.00722517
0.00816315
0.0090774
0.0099689
0.0108271
0.0116117
0.0123855
0.0131206
0.0137579
0.0143977
0.0149394
0.0154739
0.0159143
0.0163418
0.0166686
0.0169956
0.0172031
0.0173776
0.0175302
0.0175811
0.0175755
0.0175755
0.0174475
0.0172961
0.0171232
0.0169188
0.016596
0.0162893
0.0158948
0.0155005
0.0150857
0.0145518
0.0140451
0.0134909
0.0129381
0.0124163
0.0118545
0.0113201
0.0106329
0.0100222
0.00945455
0.00887245
0.00830127
0.00762947
0.00709317
0.00643745
0.00593932
0.00530227
0.00473255
0.00419508
0.00368815
0.00320154
0.00281381
0.00242267
0.00205995
0.00153883
0.00119412
0.000929874
0.000481396
0.000118994
-0.000155103
-0.000306641
-0.000708459
-0.000995803
-0.00114728
-0.00125593
-0.00158123
-0.00165967
-0.00197585
-0.00206245
-0.00208172
-0.00235595
-0.00238126
-0.00258807
-0.002609
-0.00277675
-0.00275426
-0.00292867
-0.00305159
-0.00297907
-0.00306669
-0.00319546
-0.00314319
-0.00303072
-0.00325871
-0.00310894
-0.0033275
-0.00338173
-0.00306579
-0.00330216
-0.00314144
-0.00302772
-0.000452993
-0.000829956
-0.00171812
-0.00286735
-0.00413795
-0.0055189
-0.00697907
-0.00848764
-0.0100227
-0.0115749
-0.0131255
-0.0146557
-0.0161561
-0.0176188
-0.0190291
-0.0203688
-0.0216252
-0.0227809
-0.0238198
-0.024742
-0.025573
-0.0263169
-0.0269602
-0.0275203
-0.0280107
-0.0284398
-0.0288126
-0.0291484
-0.0294424
-0.0297096
-0.0299495
-0.0301604
-0.030333
-0.0304872
-0.0306037
-0.0306951
-0.0307474
-0.0307673
-0.0307571
-0.0307133
-0.0306387
-0.0305112
-0.0303518
-0.0301585
-0.0299331
-0.0296563
-0.0293436
-0.0290046
-0.028614
-0.0281951
-0.0277362
-0.0272323
-0.0266876
-0.0261062
-0.0254737
-0.0248129
-0.0241223
-0.0234076
-0.022659
-0.0218608
-0.0210451
-0.0201897
-0.0193165
-0.0184038
-0.0174786
-0.016528
-0.0155365
-0.0145365
-0.0135048
-0.0124675
-0.0113989
-0.0103172
-0.00923117
-0.00814339
-0.00704255
-0.00591899
-0.00480096
-0.00366877
-0.00254842
-0.00143969
-0.000310897
0.000792017
0.00189575
0.00298579
0.00404914
0.00508213
0.00611275
0.0071095
0.00805717
0.00898473
0.00986559
0.0107389
0.0115729
0.0123396
0.0130938
0.0138031
0.0144259
0.015049
0.0155942
0.0161022
0.0165175
0.0169072
0.0172247
0.0175339
0.0177459
0.0179081
0.0180137
0.0180841
0.0180669
0.0180494
0.0179345
0.0177781
0.0175747
0.0173642
0.0170684
0.0167389
0.016371
0.0159604
0.0155218
0.0150266
0.0145821
0.0140668
0.0135407
0.0129908
0.0123905
0.0118741
0.0112455
0.010683
0.0101006
0.00954323
0.00898997
0.00838187
0.0078395
0.00724609
0.00676519
0.00621247
0.00570923
0.00521988
0.00473945
0.00428458
0.0038576
0.00349601
0.00312914
0.00267274
0.00231981
0.00208291
0.00172545
0.00142647
0.00110547
0.000959598
0.000668703
0.000390391
0.000182469
8.66715e-05
-0.00015588
-0.000234014
-0.000487543
-0.000603274
-0.000665662
-0.000823068
-0.00086676
-0.000997946
-0.00109048
-0.00116555
-0.0011661
-0.00125895
-0.00132441
-0.00135222
-0.00130081
-0.00140242
-0.00140502
-0.00138942
-0.0014907
-0.00140991
-0.00160864
-0.00165587
-0.0013706
-0.0015942
-0.00143092
-0.00138546
-0.00105102
-0.00188846
-0.00326667
-0.00475896
-0.00625497
-0.00775096
-0.00922822
-0.0106774
-0.0120897
-0.0134594
-0.0147775
-0.0160369
-0.0172357
-0.0183669
-0.0194188
-0.0203881
-0.0212744
-0.0220688
-0.022774
-0.0234018
-0.0239653
-0.0244722
-0.0249252
-0.0253395
-0.0257248
-0.0260881
-0.0264333
-0.0267623
-0.0270695
-0.0273641
-0.0276399
-0.0278898
-0.0281112
-0.0283091
-0.0284771
-0.0286191
-0.0287251
-0.0287902
-0.0288151
-0.0288032
-0.0287572
-0.0286659
-0.0285418
-0.0283735
-0.0281646
-0.0279173
-0.0276286
-0.0273037
-0.0269335
-0.0265285
-0.0260859
-0.0256046
-0.0250834
-0.0245292
-0.0239369
-0.0233114
-0.0226501
-0.0219537
-0.0212266
-0.0204652
-0.0196771
-0.0188561
-0.0180101
-0.017134
-0.0162339
-0.015311
-0.0143577
-0.0133909
-0.0123995
-0.0113955
-0.0103665
-0.00932672
-0.00826953
-0.00720547
-0.00613074
-0.00504695
-0.00396379
-0.00286844
-0.00177959
-0.00069298
0.000392157
0.00146341
0.00252821
0.00357572
0.00461289
0.00562202
0.00661978
0.00758644
0.00851213
0.00941726
0.0102747
0.0111124
0.0119108
0.0126679
0.0133895
0.0140708
0.0146924
0.0152748
0.0158077
0.0162889
0.0167125
0.0170877
0.0174028
0.0176723
0.0178806
0.018041
0.018134
0.0181909
0.0181733
0.0181253
0.0180147
0.01786
0.0176515
0.0174146
0.0171247
0.0167923
0.0164362
0.0160308
0.0156043
0.0151413
0.0146783
0.0141776
0.0136647
0.0131268
0.0125583
0.0120166
0.0114446
0.0108934
0.010318
0.00976817
0.00921568
0.00867012
0.00813728
0.0076042
0.00710845
0.00661066
0.00614012
0.00568955
0.00524458
0.00481813
0.00439317
0.00401879
0.00365009
0.00329388
0.00295819
0.00267134
0.00238357
0.00212582
0.0018405
0.00163135
0.00142187
0.00120891
0.000997054
0.000857102
0.000686676
0.000567389
0.000416541
0.000296832
0.000192831
8.62656e-05
2.32541e-05
-3.24725e-05
-0.000125901
-0.000163476
-0.000196749
-0.000233459
-0.000238054
-0.000312579
-0.000239207
-0.000269122
-0.000302049
-0.000342123
-0.00034623
-0.000317355
-0.000408304
-0.000406326
-0.000281613
-0.000356434
-0.000275279
-0.000285492
-0.00135578
-0.00235931
-0.00391667
-0.00550137
-0.00702189
-0.00848034
-0.00986966
-0.0111885
-0.0124357
-0.0136086
-0.0147053
-0.0157264
-0.0166736
-0.0175453
-0.0183434
-0.0190715
-0.0197305
-0.0203268
-0.0208695
-0.0213673
-0.0218324
-0.022273
-0.0226952
-0.0231058
-0.0235057
-0.0238975
-0.0242801
-0.0246493
-0.0250051
-0.0253438
-0.0256627
-0.0259541
-0.0262235
-0.0264632
-0.0266677
-0.0268379
-0.0269724
-0.0270675
-0.0271228
-0.0271384
-0.027114
-0.0270478
-0.0269424
-0.0267946
-0.0266077
-0.026379
-0.02611
-0.0258032
-0.0254561
-0.0250708
-0.0246473
-0.0241875
-0.0236917
-0.0231609
-0.0225969
-0.0219979
-0.0213649
-0.0206972
-0.0199983
-0.0192687
-0.0185083
-0.0177211
-0.0169061
-0.0160648
-0.0151974
-0.014306
-0.0133926
-0.0124577
-0.0115036
-0.0105311
-0.0095394
-0.00853746
-0.00751872
-0.00648781
-0.00544687
-0.0044031
-0.00335021
-0.00229433
-0.00123987
-0.000186757
0.000856845
0.00189752
0.00292568
0.00394209
0.00493998
0.00592169
0.00688273
0.00781765
0.0087219
0.00959268
0.0104257
0.0112334
0.0120023
0.0127404
0.0134369
0.0140878
0.0146929
0.0152476
0.0157598
0.0162139
0.0166238
0.0169822
0.0172879
0.0175365
0.0177337
0.0178756
0.0179654
0.0180034
0.0179855
0.0179167
0.0178047
0.0176434
0.0174378
0.0171868
0.0168916
0.0165682
0.0162091
0.0158097
0.0153902
0.0149412
0.0144704
0.0139787
0.0134688
0.0129441
0.0124117
0.0118624
0.0113228
0.0107708
0.0102254
0.00968054
0.00914602
0.00862192
0.00811155
0.00760466
0.00712513
0.00665441
0.00620204
0.00576684
0.00535088
0.00494559
0.0045517
0.00417847
0.00382793
0.00351064
0.00320511
0.00290953
0.00264711
0.00240326
0.00216533
0.00194776
0.00175732
0.0015852
0.00140098
0.00124329
0.00109991
0.00097694
0.000867721
0.000765122
0.000670402
0.000581636
0.000520093
0.00046792
0.000416418
0.000375041
0.000345089
0.000318925
0.000318588
0.00028052
0.000293062
0.000297902
0.000285075
0.000274946
0.000283599
0.000315163
0.000325051
0.000347745
0.000378046
0.000393524
0.000425531
0.000414686
-0.00142667
-0.00242407
-0.00395159
-0.00546658
-0.00688555
-0.00821855
-0.00946682
-0.0106323
-0.0117156
-0.0127169
-0.0136391
-0.0144872
-0.015266
-0.0159791
-0.0166344
-0.017238
-0.0177955
-0.0183166
-0.0188116
-0.019288
-0.0197529
-0.0202099
-0.0206625
-0.0211113
-0.0215559
-0.0219967
-0.0224242
-0.022838
-0.0232364
-0.0236133
-0.0239671
-0.0242915
-0.0245896
-0.024854
-0.0250789
-0.0252691
-0.0254235
-0.0255368
-0.0256108
-0.0256429
-0.0256334
-0.0255839
-0.025494
-0.0253612
-0.0251912
-0.0249798
-0.0247296
-0.024441
-0.0241131
-0.0237487
-0.023347
-0.0229098
-0.0224382
-0.0219322
-0.0213933
-0.0208209
-0.0202159
-0.0195781
-0.0189111
-0.0182145
-0.017488
-0.0167341
-0.0159538
-0.0151468
-0.0143155
-0.0134601
-0.0125858
-0.011687
-0.0107695
-0.00983355
-0.00888168
-0.00791548
-0.00693829
-0.00594587
-0.00494347
-0.00393534
-0.00291869
-0.00190256
-0.000887996
0.000127162
0.0011352
0.00213644
0.00312604
0.00410983
0.00507295
0.0060198
0.00694499
0.00784974
0.00872344
0.00955997
0.0103624
0.0111411
0.0118843
0.012597
0.0132614
0.0138812
0.0144644
0.0149936
0.0154798
0.0159144
0.0163019
0.016639
0.0169214
0.0171544
0.0173418
0.0174645
0.0175458
0.0175736
0.0175472
0.0174701
0.0173517
0.0171775
0.0169668
0.0167108
0.0164151
0.0160902
0.0157382
0.0153459
0.0149262
0.0144783
0.014016
0.01353
0.0130326
0.0125156
0.0119994
0.0114576
0.0109362
0.0103967
0.00987211
0.00933562
0.00882092
0.0083107
0.00782954
0.00734263
0.00688233
0.00643359
0.00599893
0.00558117
0.00518858
0.00479733
0.00442801
0.00407467
0.00374517
0.00344231
0.00315716
0.00288678
0.00263816
0.00240904
0.00219039
0.00199735
0.00181817
0.00165924
0.00148697
0.00134981
0.00121701
0.00110757
0.00101482
0.000929392
0.000848955
0.000780107
0.000719952
0.000675695
0.000638926
0.000610421
0.000588102
0.000573667
0.000572198
0.000564423
0.0005516
0.000560117
0.000572061
0.000589706
0.000611285
0.000647656
0.000703874
0.000731278
0.000761955
0.000802662
0.000839189
0.000831074
-0.00133226
-0.0022681
-0.00364594
-0.00499994
-0.00624972
-0.00741481
-0.00849985
-0.00950752
-0.0104405
-0.011301
-0.0120939
-0.0128257
-0.0135039
-0.0141354
-0.0147278
-0.0152873
-0.0158222
-0.0163427
-0.0168526
-0.0173548
-0.0178546
-0.0183538
-0.0188524
-0.019346
-0.019833
-0.0203148
-0.0207774
-0.0212237
-0.0216492
-0.0220537
-0.0224293
-0.0227739
-0.0230866
-0.0233654
-0.0236058
-0.0238089
-0.0239721
-0.0240945
-0.0241794
-0.0242204
-0.0242202
-0.0241804
-0.0241014
-0.0239797
-0.0238221
-0.0236257
-0.0233905
-0.0231196
-0.0228116
-0.0224685
-0.0220896
-0.0216767
-0.0212301
-0.0207508
-0.0202393
-0.0196966
-0.0191217
-0.0185169
-0.0178837
-0.017223
-0.0165311
-0.0158142
-0.0150722
-0.0143035
-0.013512
-0.0126966
-0.0118606
-0.0110021
-0.0101273
-0.00923243
-0.00832504
-0.00740184
-0.00646783
-0.00551829
-0.00455821
-0.00359365
-0.0026214
-0.00164844
-0.000674896
0.00030224
0.00126733
0.00222568
0.00317329
0.00411258
0.00503901
0.00594917
0.00683667
0.00770718
0.00854172
0.00934608
0.0101186
0.0108646
0.011574
0.0122532
0.0128835
0.0134736
0.0140298
0.0145306
0.0149917
0.0154047
0.015769
0.0160853
0.0163485
0.0165595
0.0167302
0.0168381
0.0169026
0.016914
0.0168795
0.0167929
0.0166664
0.0164876
0.0162762
0.0160181
0.0157243
0.0153922
0.0150405
0.0146531
0.0142368
0.0137998
0.0133402
0.0128591
0.0123731
0.0118686
0.0113656
0.0108357
0.0103247
0.00980383
0.00928977
0.00877179
0.00827879
0.0077831
0.00732299
0.00685853
0.00641258
0.00599357
0.00557943
0.00517808
0.00480088
0.00442525
0.00408072
0.00375146
0.00344277
0.00315865
0.00288981
0.00264082
0.00240562
0.00219433
0.00199695
0.0018153
0.00164759
0.00149893
0.00134395
0.00123641
0.00110873
0.00101169
0.000934754
0.000861401
0.000792867
0.000737069
0.000683725
0.000652716
0.000627922
0.00061105
0.000600973
0.000596026
0.000606752
0.00061467
0.000603711
0.000614689
0.00064481
0.000671599
0.000711417
0.00075714
0.000817404
0.000858021
0.000905353
0.000967931
0.00101847
0.00102904
-0.00114332
-0.00196907
-0.00314401
-0.00430166
-0.00536749
-0.00635911
-0.00728213
-0.00814151
-0.00894217
-0.00968986
-0.0103884
-0.0110445
-0.0116691
-0.0122652
-0.0128389
-0.0133961
-0.0139432
-0.0144884
-0.0150312
-0.0155722
-0.0161122
-0.0166491
-0.0171822
-0.0177121
-0.0182311
-0.0187383
-0.0192237
-0.0196895
-0.0201323
-0.0205506
-0.0209342
-0.0212855
-0.0216028
-0.0218843
-0.0221253
-0.0223295
-0.0224937
-0.0226193
-0.0227078
-0.022753
-0.0227583
-0.0227243
-0.0226526
-0.0225422
-0.0223979
-0.0222155
-0.0219963
-0.0217443
-0.0214567
-0.0211355
-0.0207804
-0.020393
-0.0199749
-0.0195254
-0.0190451
-0.018535
-0.0179943
-0.017428
-0.016832
-0.0162095
-0.0155571
-0.014884
-0.0141837
-0.0134578
-0.0127122
-0.0119443
-0.0111544
-0.0103433
-0.00951615
-0.00867031
-0.00781033
-0.00693504
-0.00604572
-0.00514478
-0.00423449
-0.00332078
-0.00239694
-0.00147133
-0.00054506
0.000384928
0.00130554
0.00222213
0.0031258
0.00401781
0.00489904
0.00576115
0.00660197
0.00742732
0.00822191
0.00898843
0.00972245
0.01043
0.0110977
0.0117372
0.0123354
0.0128992
0.0134252
0.0138964
0.0143256
0.0147071
0.0150482
0.0153377
0.0155821
0.0157723
0.0159196
0.0160116
0.0160612
0.0160574
0.0160135
0.0159124
0.0157765
0.0155914
0.0153786
0.0151157
0.0148227
0.0144942
0.0141401
0.0137549
0.0133442
0.0129188
0.0124614
0.0119929
0.0115097
0.0110232
0.0105379
0.0100252
0.00952487
0.00902278
0.00853105
0.00803408
0.00756153
0.00708358
0.00663098
0.00618858
0.00576143
0.00536664
0.00497681
0.00459406
0.00423589
0.00388721
0.00356008
0.0032508
0.0029609
0.00269746
0.00244702
0.00221325
0.00199052
0.00179061
0.0016122
0.00144146
0.00129221
0.00115464
0.00102721
0.000936275
0.000825047
0.000741378
0.000671611
0.000615078
0.000556265
0.000515149
0.000475112
0.000451123
0.000438804
0.000427798
0.000429239
0.000432823
0.000447761
0.000470916
0.00047749
0.000504753
0.000544668
0.000573201
0.000626858
0.000685868
0.000748493
0.000814553
0.000868035
0.000950294
0.00100474
0.001044
-0.000947417
-0.0015981
-0.00256483
-0.00351266
-0.00438985
-0.00521278
-0.00598975
-0.00672131
-0.00741096
-0.00806695
-0.0086939
-0.00930197
-0.0098965
-0.0104746
-0.0110458
-0.0116159
-0.0121842
-0.0127545
-0.0133232
-0.0138903
-0.014455
-0.0150167
-0.0155752
-0.016125
-0.016658
-0.0171732
-0.017666
-0.0181348
-0.018575
-0.0189872
-0.0193665
-0.0197104
-0.0200207
-0.0202955
-0.0205303
-0.0207277
-0.0208858
-0.0210107
-0.0210967
-0.0211394
-0.0211499
-0.021123
-0.0210603
-0.0209613
-0.02083
-0.0206619
-0.0204596
-0.0202268
-0.0199604
-0.0196635
-0.0193356
-0.0189772
-0.0185905
-0.0181744
-0.0177292
-0.0172575
-0.0167573
-0.0162327
-0.0156787
-0.0151024
-0.0144977
-0.013872
-0.0132194
-0.0125454
-0.0118495
-0.0111325
-0.0103966
-0.00964073
-0.00886631
-0.00807473
-0.00726861
-0.00644706
-0.00561398
-0.00476995
-0.00391566
-0.00305872
-0.00219151
-0.00132068
-0.000449587
0.000421576
0.00129025
0.00215286
0.00300397
0.00384446
0.00467665
0.00548509
0.00627677
0.00704742
0.00779874
0.00851513
0.00920231
0.00986595
0.0104948
0.0110981
0.0116564
0.0121748
0.0126621
0.0130976
0.0134927
0.0138472
0.0141623
0.0144204
0.0146375
0.0148059
0.0149315
0.0150022
0.0150305
0.015011
0.0149527
0.0148451
0.0147058
0.014515
0.0142931
0.0140266
0.01373
0.0134047
0.0130564
0.012674
0.0122705
0.0118491
0.0114035
0.0109497
0.0104722
0.010001
0.00952657
0.00903297
0.00855285
0.00807164
0.00760283
0.00712153
0.0066691
0.00621801
0.00578469
0.00536259
0.00495842
0.0045787
0.00420703
0.00385008
0.0035198
0.00319907
0.00289043
0.00259698
0.00232707
0.00207891
0.00185194
0.00163688
0.00143579
0.00124592
0.00108923
0.00092874
0.000796599
0.000673377
0.00056628
0.000476831
0.000387754
0.000326808
0.000266164
0.000215602
0.000167776
0.000142758
0.000121668
0.000101919
0.000103839
9.85008e-05
0.000105861
0.000121927
0.000142974
0.000178793
0.000197889
0.000246006
0.000297092
0.000336039
0.00039925
0.000461218
0.000541216
0.000626609
0.000681714
0.000768918
0.000830694
0.000895874
-0.000696838
-0.00122787
-0.001964
-0.00270727
-0.00340604
-0.00407598
-0.00471982
-0.00533577
-0.00592808
-0.00650482
-0.0070729
-0.00763765
-0.00819926
-0.00875948
-0.00932661
-0.00990102
-0.0104774
-0.0110597
-0.0116437
-0.0122248
-0.0128032
-0.0133756
-0.013937
-0.0144823
-0.0150057
-0.0155091
-0.0159922
-0.016448
-0.0168727
-0.0172683
-0.0176314
-0.0179549
-0.0182492
-0.0185097
-0.0187311
-0.0189192
-0.0190687
-0.0191844
-0.0192658
-0.019308
-0.0193204
-0.0192983
-0.0192436
-0.019155
-0.0190369
-0.0188853
-0.0187025
-0.0184918
-0.0182507
-0.0179817
-0.0176848
-0.0173596
-0.0170082
-0.0166307
-0.0162264
-0.0157984
-0.015344
-0.0148659
-0.0143618
-0.013838
-0.013287
-0.0127143
-0.0121189
-0.0115019
-0.0108647
-0.0102073
-0.00952824
-0.00883503
-0.00812221
-0.00739065
-0.00664864
-0.00589213
-0.00512495
-0.00434421
-0.00355113
-0.00275964
-0.00195929
-0.00115268
-0.000342049
0.000460934
0.00126293
0.00206141
0.00285278
0.00363211
0.00440534
0.00515879
0.00589351
0.00660779
0.00730293
0.00796527
0.00860115
0.0092097
0.00979035
0.0103431
0.0108579
0.0113325
0.011776
0.0121736
0.0125308
0.0128457
0.0131235
0.0133499
0.0135371
0.0136749
0.013774
0.0138235
0.013832
0.0137973
0.0137235
0.0136059
0.0134575
0.0132609
0.0130317
0.0127625
0.0124687
0.0121489
0.0117992
0.0114203
0.0110314
0.0106193
0.0101878
0.00974857
0.00928572
0.00883199
0.00836389
0.00789624
0.0074423
0.00697785
0.00652175
0.00606698
0.00564188
0.005216
0.00480578
0.00440116
0.00402258
0.00365971
0.00331223
0.00297909
0.00266783
0.00237171
0.00208884
0.00181503
0.0015693
0.0013394
0.00113133
0.000932936
0.00075631
0.000588351
0.000449326
0.00030436
0.000186128
7.39345e-05
-1.86618e-05
-9.45177e-05
-0.000168849
-0.000213352
-0.000267744
-0.000312818
-0.000343331
-0.000357083
-0.000357839
-0.000369452
-0.000356886
-0.000351057
-0.000337317
-0.000306574
-0.000274459
-0.000227207
-0.000192735
-0.000128144
-6.60488e-05
-2.00914e-05
5.18301e-05
0.000117763
0.000216738
0.000306562
0.000376846
0.000470266
0.000548526
0.000638001
-0.000515735
-0.000798295
-0.00134998
-0.00192049
-0.00246956
-0.00299656
-0.00350914
-0.0040124
-0.00451155
-0.00501542
-0.00552333
-0.00603886
-0.00656559
-0.00710463
-0.00765637
-0.00821934
-0.0087899
-0.00936611
-0.00993929
-0.0105069
-0.011071
-0.0116277
-0.012167
-0.0126887
-0.0131905
-0.0136702
-0.0141233
-0.0145426
-0.0149361
-0.0153023
-0.0156372
-0.0159369
-0.0162078
-0.0164461
-0.0166482
-0.016819
-0.0169583
-0.0170651
-0.0171391
-0.0171807
-0.0171946
-0.0171767
-0.0171308
-0.0170541
-0.0169519
-0.0168204
-0.0166609
-0.0164753
-0.0162639
-0.0160274
-0.0157661
-0.01548
-0.0151702
-0.0148369
-0.0144805
-0.0141019
-0.0136985
-0.013274
-0.0128276
-0.0123607
-0.0118688
-0.0113574
-0.0108266
-0.0102744
-0.00970313
-0.00911326
-0.00850316
-0.00787821
-0.0072345
-0.00657669
-0.00590637
-0.00522197
-0.00452476
-0.0038188
-0.00310235
-0.00238211
-0.00165057
-0.00091881
-0.000185508
0.000542828
0.00127366
0.00199819
0.0027203
0.0034301
0.00412646
0.00480913
0.00547601
0.00612897
0.00675857
0.00736317
0.0079393
0.00849054
0.00900967
0.00950543
0.0099672
0.0103908
0.0107829
0.0111347
0.0114446
0.0117176
0.0119561
0.012144
0.0122971
0.0124026
0.0124761
0.0125014
0.0124882
0.0124351
0.012345
0.01221
0.0120512
0.0118478
0.0116192
0.0113535
0.0110624
0.0107489
0.0104038
0.0100335
0.00964992
0.00924785
0.00883331
0.00841371
0.00796966
0.00753462
0.00708491
0.00664053
0.00620909
0.00576293
0.00533321
0.00491102
0.00450502
0.00410084
0.00372043
0.00334344
0.00298972
0.00264747
0.00232503
0.00200921
0.00171989
0.00145574
0.00119676
0.000948885
0.000727772
0.000515718
0.000322704
0.000142476
-1.64377e-05
-0.000160424
-0.000282977
-0.000410852
-0.000510019
-0.000606098
-0.000687178
-0.0007463
-0.000811726
-0.000845607
-0.0008895
-0.000912452
-0.000928942
-0.000944052
-0.000935192
-0.000931852
-0.000904023
-0.000885734
-0.000861683
-0.000819464
-0.000781635
-0.000722918
-0.000678618
-0.000607016
-0.000535437
-0.000466835
-0.000385164
-0.000303401
-0.00020561
-0.000106985
-2.86386e-05
8.22499e-05
0.000172628
0.000283514
-0.000371297
-0.000418336
-0.000805335
-0.00122373
-0.00161574
-0.00198602
-0.00235907
-0.0027441
-0.00314691
-0.00357191
-0.00401493
-0.00447948
-0.00496205
-0.00546014
-0.0059739
-0.00649776
-0.00703243
-0.0075737
-0.00811002
-0.00864394
-0.00917181
-0.00968695
-0.010183
-0.0106618
-0.011118
-0.0115524
-0.011963
-0.0123432
-0.0126968
-0.0130241
-0.0133211
-0.0135845
-0.0138236
-0.0140337
-0.0142129
-0.0143643
-0.014487
-0.0145805
-0.01465
-0.0146905
-0.0147068
-0.0146956
-0.0146615
-0.0145998
-0.0145163
-0.0144074
-0.0142749
-0.0141201
-0.0139446
-0.0137468
-0.013527
-0.0132861
-0.0130244
-0.0127423
-0.0124392
-0.0121163
-0.0117726
-0.0114091
-0.0110251
-0.0106227
-0.0101989
-0.00975833
-0.00929914
-0.00882012
-0.00832395
-0.00781024
-0.00727602
-0.0067289
-0.00616555
-0.00558798
-0.0049968
-0.00439518
-0.00377617
-0.0031546
-0.00251987
-0.00188117
-0.00123449
-0.000582498
6.65367e-05
0.000715001
0.0013635
0.00200424
0.0026431
0.00326743
0.00388737
0.00449425
0.00508641
0.00566272
0.00621334
0.00674017
0.00724204
0.00772629
0.0081786
0.00861225
0.00901244
0.00937649
0.00971224
0.0100098
0.0102672
0.0104977