/*--------------------------------*- C++ -*----------------------------------*\
  =========                 |
  \\      /  F ield         | OpenFOAM: The Open Source CFD Toolbox
   \\    /   O peration     | Website:  https://openfoam.org
    \\  /    A nd           | Version:  8
     \\/     M anipulation  |
\*---------------------------------------------------------------------------*/
FoamFile
{
    version     2.0;
    format      ascii;
    class       volScalarField;
    location    "100";
    object      upod_3;
}
// * * * * * * * * * * * * * * * * * * * * * * * * * * * * * * * * * * * * * //

dimensions      [0 1 -1 0 0 0 0];

internalField   nonuniform List<scalar> 
12225
(
-0.00569674
0.000135077
0.000670945
0.00398828
0.0050408
0.00558109
0.0061111
0.00679587
0.0076837
0.00854947
0.00935092
0.00987968
0.0101637
0.00979907
0.00916512
0.0037957
0.00066242
-0.0106704
-0.00575622
-0.0011996
8.03612e-05
0.00417867
0.00686571
0.00901311
0.0107052
0.0121487
0.0131414
0.0139371
0.014807
0.0147919
0.0145858
0.0138425
0.0122685
0.0107419
0.00452919
0.000103414
-0.00525974
-0.00219553
-0.000325838
0.00352351
0.00609489
0.00821515
0.00990521
0.0113145
0.0123172
0.0131545
0.0139145
0.0139818
0.0137679
0.0130939
0.0118041
0.0104061
0.00656406
0.00157064
-0.00485113
-0.00285561
-0.000751692
0.00298752
0.00547688
0.00755289
0.00921497
0.01058
0.0115828
0.0124312
0.013089
0.0132881
0.013167
0.0126641
0.0116488
0.010498
0.00828716
0.00505806
-0.00455581
-0.00319345
-0.00126531
0.00238153
0.00482519
0.00688354
0.00853159
0.00986834
0.0108692
0.0116973
0.0122983
0.0125627
0.0125203
0.0121538
0.0113802
0.0104873
0.00915577
0.00791991
-0.00434714
-0.0033598
-0.00187786
0.00161842
0.0039957
0.00604098
0.00768894
0.0090255
0.0100228
0.010836
0.0114129
0.0117126
0.0117195
0.0114452
0.0108684
0.0102181
0.00947231
0.00925539
-0.00423186
-0.00342587
-0.00253717
0.000704426
0.00295758
0.00496246
0.00660164
0.00794046
0.00893038
0.00974059
0.0103088
0.0106294
0.0106644
0.0104595
0.0100515
0.00961395
0.00931035
0.0095733
-0.00412412
-0.00351985
-0.00319775
-0.000304645
0.0017582
0.00367269
0.00526894
0.00658967
0.00756676
0.00837563
0.00893459
0.00925481
0.00932119
0.00919725
0.00894779
0.00869089
0.0087578
0.00922453
-0.00399942
-0.00366029
-0.00380012
-0.00130783
0.000494495
0.00226143
0.00377443
0.00505514
0.00600577
0.00678636
0.00733131
0.00764902
0.00775717
0.00772308
0.00761022
0.00751889
0.00785837
0.00843082
-0.00389637
-0.00383047
-0.00432215
-0.00222868
-0.000721054
0.000868063
0.00228266
0.00350932
0.00441318
0.00514731
0.0056757
0.00599983
0.00615143
0.0061974
0.00618436
0.00623997
0.00676231
0.00738405
-0.00384521
-0.00409234
-0.00464882
-0.00284461
-0.00160709
-0.00019933
0.00110214
0.00225019
0.00313126
0.00384591
0.00436668
0.00470031
0.00488969
0.00498808
0.00504833
0.00519945
0.00580992
0.00649424
-0.00393468
-0.00356913
-0.00366473
-0.00222456
-0.00139896
-0.000362859
0.000582253
0.0013778
0.00198131
0.00245179
0.00276065
0.00292397
0.00297973
0.0029645
0.00295813
0.00301787
0.00352901
0.00392091
-0.00377166
-0.00326832
-0.00311512
-0.00176987
-0.00144985
-0.000957586
-0.000558534
-0.000286318
-0.000150732
-9.4609e-05
-0.000128093
-0.000247072
-0.000425154
-0.000618012
-0.000744787
-0.00083968
-0.000362729
-0.000516088
-0.00335784
-0.0037941
-0.00426429
-0.00315153
-0.00315489
-0.00301119
-0.00296951
-0.00303526
-0.00323692
-0.00349007
-0.00378409
-0.00411556
-0.00443625
-0.00471115
-0.00489188
-0.00501937
-0.00440489
-0.00462719
-0.00288615
-0.0037498
-0.00537913
-0.00515233
-0.00568614
-0.00594693
-0.00623724
-0.00658623
-0.00701444
-0.00745568
-0.0079
-0.0083301
-0.00869311
-0.0089623
-0.00909827
-0.00915304
-0.00835379
-0.00853296
-0.00253747
-0.00313809
-0.00551886
-0.00635924
-0.0076998
-0.0085987
-0.00935624
-0.0100529
-0.0107152
-0.0113157
-0.0118513
-0.0123066
-0.0126416
-0.012838
-0.0128738
-0.0128219
-0.0118483
-0.0118615
-0.00240765
-0.00232137
-0.00480769
-0.00636051
-0.00839545
-0.00992189
-0.0111823
-0.0122789
-0.013232
-0.0140395
-0.0147003
-0.0151957
-0.0155163
-0.0156665
-0.0156387
-0.0155503
-0.0144621
-0.0145037
-0.00247076
-0.00151796
-0.00379115
-0.005651
-0.0080988
-0.0100574
-0.011702
-0.0131381
-0.0143525
-0.0153377
-0.0161072
-0.0166666
-0.0170165
-0.0171681
-0.0171316
-0.0170392
-0.0158775
-0.0160008
-0.00250387
-0.00112866
-0.00311856
-0.0049341
-0.00745879
-0.00955024
-0.0113269
-0.0128357
-0.014064
-0.0150252
-0.0157426
-0.0162397
-0.0165285
-0.0166313
-0.0165668
-0.0164624
-0.0153085
-0.0155376
-0.00267784
-0.00165571
-0.00328239
-0.00432292
-0.00617945
-0.00768496
-0.00897176
-0.0100582
-0.0109414
-0.0116291
-0.0121364
-0.0124801
-0.0126768
-0.0127439
-0.0126943
-0.0126428
-0.0116731
-0.0119028
-0.00274821
-0.00219969
-0.0037929
-0.00436753
-0.00572208
-0.00671965
-0.00755026
-0.00823747
-0.00878983
-0.00921227
-0.00951104
-0.00969366
-0.00977111
-0.00976016
-0.00966332
-0.00958577
-0.0087101
-0.00883694
-0.00284435
-0.00268421
-0.00429498
-0.00448384
-0.0053597
-0.00585646
-0.00622756
-0.00649926
-0.00670135
-0.0068207
-0.00686418
-0.00684102
-0.00675738
-0.00662832
-0.0064536
-0.00631739
-0.00550177
-0.00557619
-0.00300347
-0.00313099
-0.00462743
-0.00429116
-0.00459061
-0.00452945
-0.00440129
-0.00422514
-0.00404365
-0.00382976
-0.00359098
-0.00334296
-0.00309074
-0.00283635
-0.00258984
-0.0023856
-0.00164434
-0.00160637
-0.00323667
-0.0034882
-0.00462949
-0.00359514
-0.003241
-0.00260858
-0.00197871
-0.00136894
-0.000822677
-0.000301389
0.000187155
0.000629184
0.00102599
0.00137934
0.00168287
0.00191524
0.00254968
0.0026009
-0.00352711
-0.00369169
-0.00419414
-0.00238393
-0.001404
-0.000292034
0.000739875
0.00167293
0.0024933
0.00324147
0.00390516
0.00448668
0.00499314
0.00542277
0.00577916
0.00604352
0.00657913
0.00671324
-0.00383005
-0.00369043
-0.00336346
-0.000923251
0.00051288
0.00193008
0.00320741
0.00431636
0.00531241
0.00620722
0.00699096
0.00767418
0.00826446
0.00876
0.00917923
0.00949506
0.00996442
0.0102615
-0.00414925
-0.00346607
-0.00236941
0.000447646
0.00214266
0.00372922
0.0051377
0.006385
0.00748786
0.00845762
0.00933421
0.0100771
0.0107129
0.0112723
0.0117369
0.0120627
0.0125065
0.0128554
-0.00456964
-0.00293346
-0.00148818
0.00155718
0.00346706
0.00523333
0.00678874
0.00824967
0.00941305
0.0104386
0.0114661
0.0122148
0.0128555
0.0135279
0.0139833
0.0142908
0.0147412
0.015226
-0.00524953
-0.00254849
-0.00101656
0.00255439
0.00489571
0.00703817
0.00888554
0.0107474
0.011982
0.013102
0.0144568
0.0151758
0.0158408
0.0168206
0.0172357
0.0174995
0.018205
0.0189475
-0.0047124
-0.00165418
0.000413219
0.00388392
0.00553095
0.00701018
0.00836114
0.00976523
0.0109448
0.0120907
0.0132437
0.0141455
0.0149918
0.0158454
0.0164915
0.0170304
0.0177989
0.0189924
-0.000785781
-0.000788964
-0.00189337
-0.00378481
-0.00599645
-0.00846213
-0.0109102
-0.0132665
-0.0154714
-0.0174635
-0.0193176
-0.0210643
-0.0226196
-0.0240145
-0.0252134
-0.0262535
-0.0271039
-0.0277278
-0.0280747
-0.0282093
-0.0280926
-0.0277362
-0.027198
-0.0263517
-0.0253444
-0.0241696
-0.0228591
-0.0214459
-0.0199519
-0.0184233
-0.0168701
-0.015315
-0.0137627
-0.0122463
-0.0107449
-0.00927716
-0.0078271
-0.00642949
-0.00503992
-0.00368379
-0.00234705
-0.00106124
0.000221944
0.00146277
0.00267972
0.00384678
0.00501084
0.00611789
0.00720104
0.00823636
0.00926917
0.010226
0.0111658
0.0120462
0.0128943
0.0136611
0.0144113
0.0151025
0.0157395
0.0163042
0.0168312
0.0172799
0.0176661
0.0179814
0.01825
0.0184257
0.0185483
0.0185997
0.0185927
0.0185011
0.0183562
0.018133
0.0178421
0.0174847
0.0170783
0.0165715
0.0160317
0.0154106
0.0147445
0.0139916
0.0131993
0.0123401
0.0114325
0.0104775
0.00947666
0.00845925
0.00739269
0.00629467
0.00517514
0.0040037
0.0028292
0.00163506
0.000466669
-0.000704654
-0.00186601
-0.00300618
-0.00415645
-0.00525021
-0.00635788
-0.00739546
-0.00842215
-0.009387
-0.0103429
-0.0112132
-0.0120699
-0.0128575
-0.0135643
-0.0142566
-0.0148685
-0.0154099
-0.0159153
-0.0163321
-0.0167082
-0.0170165
-0.0172853
-0.017444
-0.0175894
-0.0176596
-0.0176513
-0.017616
-0.0175102
-0.0173876
-0.0172252
-0.0170006
-0.0167473
-0.0164373
-0.0161075
-0.0157256
-0.0153227
-0.0149563
-0.0145174
-0.0140918
-0.0135672
-0.0131507
-0.0126176
-0.0121555
-0.0116229
-0.0110927
-0.0105651
-0.0101005
-0.0096029
-0.00920088
-0.00870854
-0.00830148
-0.00783784
-0.00743296
-0.00707715
-0.0067121
-0.00635075
-0.00599732
-0.00574394
-0.00540112
-0.00510163
-0.00486568
-0.00469716
-0.00438704
-0.00422487
-0.00397239
-0.00373651
-0.00367776
-0.00341566
-0.00330708
-0.00306649
-0.00300378
-0.00281097
-0.00271852
-0.00263897
-0.00245085
-0.00244365
-0.00242989
-0.00236031
-0.00224055
-0.0024133
-0.00226687
-0.00240423
-0.00257484
-0.00270345
-0.00323016
-0.00357245
-0.00426643
-0.0016723
-0.00343933
-0.00596876
-0.00872719
-0.0113533
-0.0138054
-0.0160294
-0.0180167
-0.0197461
-0.0211774
-0.0222971
-0.0230941
-0.0235712
-0.0237202
-0.0235831
-0.0231783
-0.0225291
-0.0216639
-0.020641
-0.0194614
-0.0181583
-0.0167656
-0.0153151
-0.0138451
-0.0123795
-0.0109457
-0.00954968
-0.00821359
-0.00692827
-0.0057089
-0.0045368
-0.00341535
-0.00232983
-0.00129022
-0.00026655
0.000721119
0.00169866
0.00265742
0.00360689
0.00455357
0.00548082
0.00641202
0.00733194
0.00824631
0.0091389
0.0100291
0.0109009
0.0117446
0.0125859
0.0133933
0.0141864
0.0149473
0.0156859
0.0163863
0.0170575
0.0176865
0.0182808
0.0188196
0.0193159
0.019786
0.0201755
0.0205325
0.0208245
0.0210826
0.0212627
0.0213913
0.0214607
0.0214639
0.0214279
0.021309
0.0211266
0.0208917
0.0205813
0.0202324
0.0198268
0.0193459
0.0188146
0.0182178
0.0175862
0.0168617
0.016138
0.015344
0.0144845
0.013606
0.0126603
0.0117094
0.0107011
0.00967997
0.00865768
0.00757865
0.00650849
0.00545031
0.00439366
0.00326605
0.002216
0.00119242
7.8946e-05
-0.000900289
-0.00195656
-0.00288388
-0.00386621
-0.00472263
-0.00563949
-0.00638953
-0.00722735
-0.00795753
-0.00855445
-0.00918863
-0.00975778
-0.0101338
-0.0106089
-0.010957
-0.0111825
-0.0113123
-0.0115373
-0.0115735
-0.0116564
-0.0115967
-0.01145
-0.0114447
-0.0112709
-0.0111071
-0.0108518
-0.0104474
-0.0100628
-0.00956275
-0.00934158
-0.00891686
-0.008371
-0.00782969
-0.0072669
-0.00692268
-0.0062928
-0.00593979
-0.00526354
-0.00492861
-0.00448099
-0.00400313
-0.00350025
-0.00300413
-0.00234312
-0.00174375
-0.00114765
-0.000968867
-0.000469026
0.000136984
0.000285294
0.000583016
0.000993584
0.00160461
0.00161043
0.00182478
0.00227812
0.00277711
0.00275796
0.0032393
0.00315694
0.00353393
0.00401239
0.0038977
0.00429894
0.00425919
0.00460232
0.00459752
0.0049825
0.00491516
0.00494441
0.00536326
0.00541181
0.00535754
0.00568327
0.00610737
0.0057835
0.00627069
0.00592822
0.00592151
0.00664527
0.00615306
0.00653195
0.00672281
-0.00205319
-0.00401903
-0.00654033
-0.00896106
-0.0110631
-0.0128525
-0.014322
-0.0154753
-0.0163274
-0.0169062
-0.0172176
-0.0172585
-0.0170528
-0.0166313
-0.0160255
-0.01526
-0.0143829
-0.0134219
-0.0123955
-0.0113218
-0.0102652
-0.00924755
-0.0082607
-0.00734386
-0.00649656
-0.00570605
-0.00495231
-0.00424491
-0.00354774
-0.00287187
-0.00220038
-0.00151783
-0.00079729
-8.04864e-05
0.000674723
0.00143955
0.00224112
0.00306091
0.00388994
0.00473032
0.00557115
0.00645539
0.00733213
0.00820091
0.00905291
0.00992644
0.010786
0.0116061
0.0124387
0.0132303
0.0140043
0.0147689
0.0155129
0.016225
0.0169367
0.0175948
0.0182025
0.018744
0.0192424
0.0197334
0.0201462
0.0205287
0.0208345
0.0211113
0.0213016
0.0214361
0.0215493
0.0215746
0.0215647
0.021466
0.0213379
0.0211437
0.0208695
0.0205136
0.0201063
0.0196741
0.0191617
0.0186193
0.0179964
0.0173019
0.0166128
0.0158385
0.0150467
0.014213
0.0133187
0.012367
0.0114297
0.0104519
0.00941681
0.0083969
0.00733537
0.00632166
0.00529767
0.00421611
0.00320799
0.00221166
0.00114849
0.000214869
-0.000753196
-0.00165793
-0.0026142
-0.00347128
-0.00432589
-0.00503149
-0.00577652
-0.00645348
-0.00707494
-0.00759163
-0.0081178
-0.00846642
-0.00885145
-0.00915482
-0.00939454
-0.00948691
-0.00960826
-0.00965447
-0.0096437
-0.00959145
-0.00947635
-0.0093705
-0.00905184
-0.00879737
-0.00848247
-0.00814812
-0.00785872
-0.0073317
-0.00700909
-0.00650808
-0.00603065
-0.005485
-0.00493041
-0.0044996
-0.003939
-0.00351308
-0.00286964
-0.0024189
-0.00189534
-0.001386
-0.000905662
-0.000418347
7.71063e-05
0.000656604
0.0011619
0.00141394
0.00182966
0.00243889
0.0027278
0.00308555
0.00333546
0.00391477
0.00412323
0.00431213
0.00460123
0.00508317
0.00520596
0.00564507
0.00565903
0.00593843
0.00629656
0.00641375
0.00674453
0.00685062
0.00701265
0.00718778
0.00750213
0.00759065
0.00771848
0.00790573
0.0082476
0.00823725
0.00842546
0.00862613
0.00856191
0.00888017
0.00856674
0.00858123
0.00928323
0.00886677
0.00929359
0.00954334
-0.00185674
-0.00333431
-0.00525952
-0.00693146
-0.00829937
-0.00938306
-0.0101842
-0.0107298
-0.0110468
-0.011165
-0.0111019
-0.0108779
-0.0105273
-0.0100741
-0.00953524
-0.00894448
-0.00834136
-0.00773638
-0.00714728
-0.00659288
-0.00608638
-0.00562356
-0.00519071
-0.00479558
-0.0044295
-0.00407793
-0.00372548
-0.00335729
-0.00294932
-0.00251483
-0.00203969
-0.00151079
-0.000927404
-0.000307466
0.000355225
0.00104408
0.00177355
0.0025462
0.00335373
0.00418135
0.00501701
0.00587933
0.00673576
0.00760651
0.00847902
0.00934453
0.0102067
0.0110504
0.0118935
0.0127099
0.0135043
0.0142762
0.0150266
0.0157389
0.0164231
0.0170669
0.0176753
0.0182454
0.0187676
0.0192499
0.0196756
0.0200585
0.0203826
0.02066
0.0208785
0.0210366
0.021153
0.0211935
0.0211844
0.0211027
0.0209792
0.0207862
0.0205427
0.0202296
0.0198603
0.0194369
0.0189446
0.018418
0.017823
0.0171772
0.0164902
0.0157442
0.0149639
0.0141343
0.0132799
0.0123724
0.0114591
0.0105095
0.00951703
0.00853514
0.00750821
0.00650383
0.00548987
0.00447444
0.00348033
0.00250721
0.00152282
0.000579735
-0.000336649
-0.00122348
-0.00208772
-0.00290434
-0.00369347
-0.00441676
-0.0051036
-0.00572234
-0.00631223
-0.00680365
-0.00728126
-0.00765116
-0.00798536
-0.00824863
-0.00846659
-0.0085874
-0.00867157
-0.00870376
-0.00865132
-0.00857701
-0.00842873
-0.00825161
-0.00797707
-0.00769774
-0.00736674
-0.0070233
-0.00668637
-0.00624114
-0.00582482
-0.00533587
-0.00488253
-0.00436428
-0.0038531
-0.00333534
-0.00280802
-0.00230644
-0.00175391
-0.0012419
-0.000709432
-0.000179783
0.000312071
0.000792756
0.00122342
0.00170712
0.00214353
0.00254834
0.00293705
0.00337775
0.00376426
0.00415674
0.00442988
0.00482082
0.00516255
0.00544633
0.00568127
0.00602742
0.00626791
0.00657863
0.00677864
0.00700868
0.00724033
0.0074373
0.00769699
0.00793814
0.00806883
0.00829672
0.00850995
0.00869534
0.00892605
0.00898521
0.00935257
0.00947264
0.00956776
0.00963138
0.00975981
0.00994345
0.0098469
0.00994046
0.01028
0.0101828
0.010409
0.0105425
-0.00143617
-0.00228928
-0.003536
-0.00450103
-0.00523715
-0.00577463
-0.00612565
-0.00632286
-0.0063952
-0.00636329
-0.00624668
-0.00606759
-0.00585051
-0.00561069
-0.00536836
-0.0051424
-0.00493961
-0.0047689
-0.00463519
-0.00453227
-0.00445903
-0.00440376
-0.00435413
-0.00429973
-0.0042227
-0.00411391
-0.00396026
-0.00374783
-0.00347708
-0.00314382
-0.00274851
-0.00228275
-0.00176829
-0.00119885
-0.000571472
0.000101787
0.000815464
0.00156893
0.00235606
0.00316932
0.00400328
0.00485562
0.00571619
0.00658672
0.00745575
0.00832477
0.00918935
0.01004
0.0108799
0.0117017
0.0125042
0.0132807
0.0140295
0.0147464
0.0154269
0.0160737
0.0166837
0.017258
0.0177882
0.0182733
0.0187137
0.019101
0.0194376
0.0197215
0.019953
0.0201294
0.0202478
0.0203096
0.0203117
0.0202557
0.0201461
0.0199672
0.0197373
0.0194505
0.019107
0.0186965
0.0182389
0.0177274
0.0171598
0.0165432
0.015868
0.0151573
0.0143984
0.0136023
0.0127635
0.0118968
0.011003
0.0100824
0.00913802
0.00817365
0.00718506
0.00620572
0.00521754
0.00424992
0.00328851
0.00233515
0.00139807
0.000475405
-0.000407148
-0.00127675
-0.00209698
-0.00287882
-0.00361918
-0.00432222
-0.00497038
-0.00556933
-0.00611051
-0.00659199
-0.00702329
-0.00739548
-0.00769436
-0.00793711
-0.00811812
-0.00824316
-0.00831631
-0.00831018
-0.00824981
-0.00815193
-0.00798277
-0.00777408
-0.00751943
-0.0072267
-0.00689994
-0.00654092
-0.00614403
-0.00573894
-0.00527887
-0.00482263
-0.00433822
-0.00384714
-0.00333723
-0.00281686
-0.00228737
-0.0017776
-0.00124153
-0.00072398
-0.000208123
0.000298246
0.000795577
0.00126351
0.00170232
0.00212998
0.0025493
0.0029819
0.00338059
0.00374747
0.00413592
0.00450866
0.00483726
0.00516088
0.00549848
0.00582749
0.00608048
0.00634873
0.00660923
0.00687451
0.00712981
0.00736108
0.00757819
0.00777941
0.00801087
0.00823206
0.00842739
0.008619
0.0088131
0.00899562
0.00921071
0.00932446
0.00953442
0.00970935
0.00982636
0.00993583
0.010072
0.0102416
0.0103455
0.0104594
0.0105762
0.0106593
0.0107578
0.0108556
-0.000997096
-0.00132381
-0.00200658
-0.00245576
-0.00277579
-0.00299294
-0.00312776
-0.00320601
-0.00324657
-0.00326299
-0.00327053
-0.00328503
-0.00331849
-0.00337579
-0.00346745
-0.00359383
-0.00375004
-0.00393371
-0.00414073
-0.00435837
-0.00457541
-0.00477531
-0.00494618
-0.00507447
-0.00515062
-0.0051702
-0.00511178
-0.00497791
-0.00477129
-0.00448673
-0.00412976
-0.00369707
-0.00320656
-0.00265249
-0.00203209
-0.001366
-0.000660127
8.85673e-05
0.000869175
0.00168066
0.0025164
0.00336684
0.00422818
0.00510144
0.00597041
0.00684052
0.00770362
0.00855573
0.00939676
0.0102185
0.0110211
0.0117986
0.0125478
0.0132668
0.0139519
0.0146029
0.0152178
0.0157959
0.0163294
0.0168185
0.0172642
0.0176613
0.018008
0.0183051
0.018549
0.0187402
0.0188689
0.0189496
0.0189716
0.018937
0.0188434
0.0186907
0.0184754
0.018211
0.0178908
0.0175108
0.017083
0.016594
0.0160489
0.0154594
0.0148162
0.0141287
0.0133946
0.0126356
0.0118286
0.0109929
0.010127
0.00924471
0.00833601
0.00739669
0.00643935
0.00549378
0.00454518
0.00361636
0.00267732
0.00174637
0.00084935
-4.29934e-05
-0.000899285
-0.00173138
-0.00252355
-0.00327718
-0.00399686
-0.00466507
-0.00526953
-0.0058488
-0.00635046
-0.00680082
-0.00720196
-0.00754739
-0.00781983
-0.0080545
-0.00821351
-0.00832139
-0.00837175
-0.00834906
-0.00825712
-0.00813237
-0.00795693
-0.00774297
-0.00747064
-0.00717042
-0.00682465
-0.0064608
-0.00604482
-0.00564371
-0.00516838
-0.00471307
-0.00421455
-0.00373999
-0.00322457
-0.00271419
-0.00216373
-0.00165607
-0.00112603
-0.000610586
-0.000107946
0.000384086
0.00087964
0.00132511
0.00176431
0.00218262
0.00259611
0.0030098
0.00340411
0.00377688
0.00414615
0.00450465
0.00483212
0.00516617
0.0054852
0.00580225
0.00604368
0.00632013
0.0065675
0.00682797
0.00708638
0.00732379
0.00754076
0.00775397
0.00795769
0.00816897
0.00837073
0.00856565
0.00875196
0.00893558
0.00912582
0.00928293
0.00941359
0.00957543
0.00972725
0.00987765
0.0100214
0.0101823
0.0103673
0.0104721
0.0105712
0.0106901
0.0107806
0.0108437
-0.000658109
-0.00055919
-0.0008968
-0.00106117
-0.00118613
-0.00129023
-0.00139103
-0.00150526
-0.00164381
-0.00181186
-0.00201697
-0.00226464
-0.00255922
-0.00289758
-0.00327638
-0.0036842
-0.00411332
-0.00455798
-0.00500012
-0.0054217
-0.00581356
-0.00616274
-0.00645861
-0.00668456
-0.00683507
-0.0069143
-0.00689646
-0.0067943
-0.00660719
-0.00634398
-0.00599818
-0.0055757
-0.00508595
-0.00453452
-0.00392105
-0.00325728
-0.00254612
-0.0017932
-0.00101281
-0.000197214
0.000642133
0.0014963
0.00235972
0.0032365
0.00410817
0.00497796
0.00584291
0.0066939
0.00753221
0.00835074
0.00915022
0.00992514
0.0106732
0.0113915
0.0120783
0.0127301
0.0133486
0.0139282
0.0144657
0.014958
0.0154138
0.0158194
0.0161751
0.0164849
0.0167411
0.016947
0.0170969
0.0171965
0.0172345
0.0172213
0.0171433
0.0170111
0.0168172
0.0165761
0.0162814
0.0159252
0.01552
0.0150568
0.0145425
0.0139903
0.0133737
0.0127125
0.0120061
0.0112687
0.0104999
0.0097013
0.00886895
0.0080264
0.00714439
0.00624533
0.00533151
0.004421
0.00350382
0.00260469
0.00169237
0.000795428
-6.43509e-05
-0.000925318
-0.00174616
-0.00253876
-0.00329777
-0.00401634
-0.00470036
-0.00534262
-0.00591297
-0.00645788
-0.00693429
-0.00736284
-0.00772846
-0.00804633
-0.00829271
-0.00849778
-0.00862326
-0.00870531
-0.00872591
-0.00869763
-0.00858774
-0.00843993
-0.00824939
-0.0080085
-0.00773121
-0.00742448
-0.0070618
-0.00668305
-0.00625432
-0.00584814
-0.0053745
-0.00490629
-0.00441601
-0.00393542
-0.00341058
-0.0029091
-0.00235535
-0.00184368
-0.00132918
-0.000797161
-0.000299676
0.000177725
0.000656354
0.00108546
0.00152891
0.00195013
0.0023605
0.00276783
0.00315245
0.00352708
0.00388075
0.00423518
0.00456867
0.00488851
0.00519377
0.00549609
0.00574075
0.00604802
0.00627314
0.00652941
0.00679256
0.0070281
0.00724309
0.00745707
0.00764875
0.00786363
0.00806715
0.00826445
0.0084548
0.00863619
0.00883145
0.00900117
0.00911356
0.00925895
0.00943043
0.0095801
0.00974381
0.00990494
0.0100798
0.0101959
0.0103129
0.0104603
0.0105656
0.0106319
-0.000409135
-9.41254e-05
-0.00026803
-0.000337573
-0.000440705
-0.000576253
-0.000756734
-0.000992888
-0.00128949
-0.001649
-0.00206705
-0.00254063
-0.00307326
-0.00364705
-0.00425016
-0.0048689
-0.00549168
-0.0061108
-0.00670432
-0.00725488
-0.00775081
-0.0081776
-0.00852862
-0.00880371
-0.0089882
-0.00908416
-0.00907753
-0.0089815
-0.0087989
-0.00853657
-0.00818292
-0.00775414
-0.00725585
-0.00669433
-0.0060686
-0.00539482
-0.00467401
-0.00391668
-0.00313254
-0.00231379
-0.00147265
-0.000615639
0.000249435
0.00112217
0.00198789
0.00285313
0.00371293
0.00455606
0.00538664
0.00619884
0.00699185
0.00776081
0.00850133
0.00921372
0.00989633
0.0105458
0.0111636
0.0117379
0.0122777
0.012775
0.0132371
0.0136442
0.0140102
0.0143317
0.0145964
0.0148107
0.0149752
0.0150892
0.0151436
0.0151462
0.0150896
0.0149795
0.0148163
0.0145987
0.0143264
0.0139912
0.0136134
0.0131805
0.0126971
0.0121764
0.0115972
0.0109788
0.0103099
0.00960232
0.00886691
0.00809456
0.00729048
0.00647783
0.00563548
0.00477838
0.00390272
0.00302902
0.00213863
0.00126886
0.00040008
-0.000443787
-0.00126187
-0.00208335
-0.00287315
-0.00363731
-0.00435384
-0.00504081
-0.00567966
-0.00628538
-0.00682931
-0.00733606
-0.00777703
-0.00817547
-0.00850401
-0.00880029
-0.0090191
-0.00919521
-0.0092862
-0.0093465
-0.00933824
-0.00927993
-0.00915793
-0.00899339
-0.00878328
-0.00851464
-0.00823455
-0.00790644
-0.00754791
-0.00714389
-0.00669523
-0.00627433
-0.00580413
-0.0053251
-0.00482011
-0.00433123
-0.00380197
-0.00330529
-0.00278033
-0.00226713
-0.00175948
-0.00122336
-0.000722387
-0.000254668
0.00021551
0.000653695
0.00108593
0.00150223
0.00190648
0.00231322
0.00269404
0.00305901
0.00339759
0.00373635
0.00407308
0.00438002
0.00468943
0.00498142
0.0052536
0.00556559
0.00579604
0.00605199
0.00630345
0.00654984
0.00676083
0.00698251
0.00717936
0.00738663
0.00759521
0.00778389
0.00797855
0.00815762
0.00834226
0.00852585
0.0086563
0.00881629
0.00898808
0.00912074
0.00929504
0.00946445
0.00962584
0.00977926
0.00989176
0.0100624
0.0101609
0.0102574
-0.00027637
7.56027e-05
-6.70404e-05
-0.000165962
-0.000344345
-0.000591963
-0.000923321
-0.00133543
-0.00182088
-0.00238017
-0.00300391
-0.00369101
-0.00443041
-0.00519008
-0.00596652
-0.00674819
-0.00751195
-0.00824648
-0.00892848
-0.00954577
-0.0100887
-0.0105508
-0.0109308
-0.0112193
-0.0114033
-0.0114881
-0.0114719
-0.0113613
-0.0111563
-0.0108685
-0.0104977
-0.0100484
-0.00953363
-0.00895832
-0.00832163
-0.00763673
-0.0069065
-0.00615077
-0.00536264
-0.00453838
-0.00370619
-0.00286002
-0.00200631
-0.00114722
-0.000294333
0.00055912
0.00140593
0.00223599
0.00305374
0.0038514
0.00462912
0.00538423
0.00611162
0.0068122
0.00748493
0.00812339
0.00873118
0.00929875
0.00983651
0.0103281
0.0107868
0.0111957
0.0115678
0.0118907
0.0121658
0.0123918
0.0125647
0.0126881
0.0127604
0.0127805
0.0127447
0.0126578
0.0125145
0.0123174
0.012069
0.0117576
0.0114052
0.0110031
0.0105502
0.0100525
0.00951142
0.0089267
0.00829452
0.00762538
0.006933
0.00619271
0.00542923
0.00464364
0.00385109
0.00302665
0.00218912
0.0013571
0.000517144
-0.000299425
-0.00112606
-0.00194272
-0.00272255
-0.00350338
-0.00425298
-0.00496598
-0.00563318
-0.00628744
-0.00688855
-0.00744988
-0.00795436
-0.00842629
-0.00883802
-0.00920087
-0.00949677
-0.00974948
-0.00992403
-0.0100671
-0.0101381
-0.0101725
-0.0101439
-0.0100565
-0.00990565
-0.00972443
-0.00949378
-0.0092165
-0.00891534
-0.00856485
-0.00820827
-0.00778988
-0.00734088
-0.00690547
-0.00642283
-0.00593349
-0.00541738
-0.00493666
-0.00440832
-0.00390024
-0.00338226
-0.00287503
-0.00236762
-0.00184959
-0.00136003
-0.000887325
-0.000407539
4.09301e-05
0.000463548
0.000865753
0.00126612
0.00166094
0.00204914
0.00241239
0.00275684
0.00307793
0.00342451
0.0037177
0.00402999
0.00432027
0.0046055
0.00489108
0.00514173
0.0054195
0.00566466
0.00590017
0.00611232
0.00634712
0.00656348
0.00675888
0.00697843
0.00715952
0.00734792
0.00753532
0.007715
0.0079084
0.00804778
0.00823455
0.0084112
0.00854654
0.00872148
0.00887784
0.00905912
0.00923641
0.00933418
0.00949736
0.0095957
0.00972068
-0.000332076
6.07759e-05
-0.000157193
-0.000371245
-0.000693797
-0.00111346
-0.0016285
-0.00222879
-0.00290606
-0.00365656
-0.0044724
-0.00533982
-0.0062365
-0.00714203
-0.00805268
-0.00894908
-0.00980353
-0.0106105
-0.0113503
-0.0120065
-0.0125766
-0.0130526
-0.013426
-0.0136914
-0.0138443
-0.0138968
-0.0138573
-0.0137208
-0.013489
-0.0131764
-0.0127851
-0.0123096
-0.0117803
-0.0111963
-0.0105529
-0.0098702
-0.00914271
-0.00838685
-0.00760634
-0.00679577
-0.00597937
-0.00515106
-0.00431761
-0.00347988
-0.00264952
-0.00182021
-0.000998701
-0.000193683
0.000598748
0.00137148
0.00212421
0.00285632
0.00356286
0.00424223
0.0048955
0.00551491
0.0061059
0.00666179
0.00718653
0.00766575
0.0081151
0.00852226
0.0088889
0.00921189
0.00948812
0.00971807
0.00990546
0.0100345
0.0101185
0.0101572
0.0101344
0.0100612
0.00993257
0.00975846
0.00953997
0.00925113
0.00892013
0.00854673
0.00813176
0.00765576
0.00714059
0.006588
0.0059977
0.00536724
0.00471767
0.00402785
0.00330925
0.00256811
0.00181866
0.00103962
0.000250822
-0.000542868
-0.00133213
-0.00210637
-0.00287881
-0.00364587
-0.00438064
-0.00510792
-0.00580901
-0.00648195
-0.0071094
-0.00771649
-0.0082727
-0.00879617
-0.00926043
-0.00968752
-0.010058
-0.0103767
-0.0106361
-0.0108475
-0.010986
-0.011093
-0.0111383
-0.0111439
-0.0110813
-0.0109608
-0.0107992
-0.0106027
-0.0103392
-0.0100467
-0.00972474
-0.00935792
-0.00899009
-0.00855951
-0.00812733
-0.00766946
-0.00716834
-0.00668478
-0.0061863
-0.00569568
-0.00515873
-0.00464822
-0.00413361
-0.00364286
-0.00313428
-0.00263437
-0.0021466
-0.0016761
-0.00120813
-0.000758403
-0.00033118
6.36869e-05
0.000467797
0.000855563
0.00124025
0.00159703
0.00195351
0.00228266
0.00262993
0.00292106
0.00322954
0.00351153
0.00379839
0.00408486
0.00434059
0.00462815
0.00486224
0.00508722
0.00531552
0.00555395
0.00579464
0.00598798
0.00621216
0.00639925
0.00658378
0.00678565
0.00697209
0.00717358
0.00732956
0.00753518
0.00771796
0.00785029
0.0080251
0.00817191
0.0083782
0.00854833
0.00866338
0.00882287
0.00894088
0.0090947
-0.000294469
-0.000125797
-0.000408443
-0.000825536
-0.0013522
-0.00195888
-0.00265007
-0.00342648
-0.0042808
-0.00520957
-0.00618841
-0.0071998
-0.00823004
-0.00925951
-0.010271
-0.0112451
-0.0121624
-0.0130096
-0.0137622
-0.0144138
-0.0149706
-0.0154267
-0.0157667
-0.0159977
-0.0161233
-0.0161481
-0.0160719
-0.015889
-0.0156264
-0.0152904
-0.0148814
-0.0143992
-0.0138659
-0.0132804
-0.0126411
-0.0119655
-0.0112584
-0.0105228
-0.00976257
-0.00898266
-0.00819679
-0.00739931
-0.0066015
-0.00579975
-0.00500761
-0.00421873
-0.00343743
-0.00266931
-0.00191617
-0.0011809
-0.000464618
0.000231242
0.000903703
0.00155124
0.00217235
0.00276419
0.00333132
0.00386483
0.00436543
0.00482934
0.00526532
0.00566051
0.00601433
0.00633001
0.00660242
0.00683035
0.00701763
0.00715304
0.00724586
0.00728733
0.00727585
0.0072168
0.00711054
0.00695175
0.0067476
0.00648789
0.00619363
0.00584551
0.00545204
0.00500516
0.00452811
0.00400881
0.00346295
0.00287633
0.00225421
0.00160429
0.000931131
0.00024844
-0.000453792
-0.00117097
-0.00190467
-0.00264035
-0.0033838
-0.00410616
-0.00482218
-0.00553289
-0.00621758
-0.00688785
-0.00754134
-0.00816076
-0.00873502
-0.00929401
-0.00979848
-0.0102739
-0.0106831
-0.0110605
-0.0113843
-0.0116578
-0.0118754
-0.012056
-0.0121568
-0.0122269
-0.0122281
-0.0121911
-0.0120961
-0.0119436
-0.0117618
-0.0115439
-0.0112732
-0.0109696
-0.0106278
-0.0102413
-0.00986142
-0.00942425
-0.00899085
-0.0085255
-0.00802239
-0.00754961
-0.00704696
-0.00654128
-0.00602052
-0.00552172
-0.00500202
-0.00451111
-0.0040087
-0.00352409
-0.00304152
-0.00259167
-0.00213271
-0.00166918
-0.00124449
-0.000845837
-0.000438968
-6.13088e-05
0.000309869
0.000662162
0.0010151
0.00135645
0.00170137
0.00199368
0.00230979
0.00259467
0.00287682
0.00317131
0.0034196
0.00370539
0.00393923
0.00419017
0.00442753
0.00464259
0.00488578
0.00509358
0.00533345
0.00553028
0.00572039
0.00593049
0.00611305
0.00632384
0.00648573
0.00669062
0.00687818
0.00704386
0.00722258
0.00738634
0.00757351
0.00774734
0.0078669
0.00804845
0.00817911
0.00835952
-0.000273734
-0.000341017
-0.000807687
-0.00146755
-0.00218483
-0.00294479
-0.00378362
-0.00470914
-0.0057162
-0.00679274
-0.00790978
-0.00905093
-0.0101888
-0.0112985
-0.012366
-0.0133669
-0.0142956
-0.0151394
-0.0158731
-0.016505
-0.0170327
-0.0174475
-0.0177445
-0.0179356
-0.0180188
-0.0180056
-0.017902
-0.0177027
-0.0174252
-0.0170787
-0.0166633
-0.0161789
-0.0156529
-0.0150811
-0.0144654
-0.013818
-0.0131411
-0.0124388
-0.0117254
-0.0109945
-0.0102586
-0.00951385
-0.00877219
-0.00802552
-0.00728807
-0.00655397
-0.00582827
-0.00511538
-0.00441941
-0.00373877
-0.00307408
-0.002429
-0.00180484
-0.00120352
-0.000624459
-7.16232e-05
0.000455957
0.000955251
0.00142675
0.00186474
0.00227439
0.00264478
0.00297858
0.00327768
0.00353594
0.00375352
0.00393693
0.00406966
0.00415966
0.00420377
0.00420188
0.00414925
0.00406437
0.00391775
0.00373541
0.00350161
0.00322928
0.00291612
0.00255031
0.0021438
0.00170423
0.00122035
0.000712643
0.0001601
-0.000407626
-0.001002
-0.00161767
-0.00224867
-0.00290594
-0.00357736
-0.00426004
-0.00493138
-0.0056139
-0.00626953
-0.00692218
-0.00757041
-0.00819128
-0.0087999
-0.00939413
-0.00994005
-0.0104666
-0.0109669
-0.0114095
-0.011821
-0.0121769
-0.0125018