/*--------------------------------*- C++ -*----------------------------------*\
  =========                 |
  \\      /  F ield         | OpenFOAM: The Open Source CFD Toolbox
   \\    /   O peration     | Website:  https://openfoam.org
    \\  /    A nd           | Version:  8
     \\/     M anipulation  |
\*---------------------------------------------------------------------------*/
FoamFile
{
    version     2.0;
    format      ascii;
    class       volScalarField;
    location    "100";
    object      upod_4;
}
// * * * * * * * * * * * * * * * * * * * * * * * * * * * * * * * * * * * * * //

dimensions      [0 1 -1 0 0 0 0];

internalField   nonuniform List<scalar> 
12225
(
-0.00373295
0.00127217
0.00204515
0.00583766
0.00714066
0.00797013
0.00875771
0.00961667
0.0106014
0.0114674
0.0121917
0.0126006
0.0127511
0.0123455
0.0113212
0.00668283
0.0033238
-0.00797816
-0.00379435
0.000515534
0.00214308
0.00643148
0.00894914
0.0109378
0.0125133
0.0139027
0.0148606
0.0156156
0.0164719
0.0163764
0.0160868
0.0152439
0.0136556
0.0119199
0.00568412
0.00170683
-0.00334477
-0.000306113
0.00200924
0.00605647
0.00848047
0.0104172
0.0119244
0.0131647
0.0140007
0.0146482
0.0152385
0.0151179
0.0147327
0.0138841
0.0124693
0.0107853
0.00697519
0.00282623
-0.00293407
-0.000922129
0.00162763
0.00554656
0.0079126
0.00983611
0.0113357
0.01253
0.0133396
0.0139555
0.0143773
0.0143364
0.0139865
0.0132555
0.0120547
0.0106679
0.00839769
0.00586425
-0.00263919
-0.00130718
0.0010696
0.00489711
0.00723604
0.00916511
0.0106681
0.011844
0.0126499
0.0132435
0.0135943
0.0136068
0.0133203
0.0127099
0.0117326
0.0106497
0.00923314
0.00847699
-0.00243439
-0.00157574
0.00036114
0.00406551
0.00636484
0.00830341
0.00982056
0.011005
0.0118136
0.0124033
0.0127362
0.0127877
0.0125538
0.0120441
0.0112647
0.010449
0.00959622
0.0096313
-0.00232023
-0.0017497
-0.000414637
0.00307302
0.00528308
0.00720879
0.0087341
0.00993591
0.0107496
0.0113529
0.0116925
0.0117776
0.0115869
0.0111672
0.0105679
0.00997548
0.00954367
0.00988352
-0.0022116
-0.00191353
-0.00118784
0.00197695
0.00403814
0.00590902
0.00741809
0.00862567
0.00944665
0.0100685
0.0104232
0.0105338
0.0103986
0.0100839
0.00965934
0.00925844
0.00918246
0.00961215
-0.00208629
-0.00209046
-0.00189072
0.000888874
0.00273139
0.00449519
0.00595682
0.00715302
0.00797753
0.00860307
0.00897574
0.00911652
0.00905284
0.00885494
0.00858655
0.00836202
0.0085655
0.00904841
-0.00198501
-0.00227988
-0.00249547
-0.000105196
0.00147902
0.00310563
0.00450684
0.00568465
0.00649944
0.00711965
0.00751461
0.00769874
0.00771135
0.00762283
0.00748038
0.00742131
0.00782539
0.00834912
-0.00194041
-0.00254148
-0.0028553
-0.000760723
0.00057352
0.00205022
0.00337397
0.00451195
0.00534701
0.00599498
0.00642905
0.00666956
0.00676523
0.00677184
0.00674297
0.00681744
0.00735231
0.00797217
-0.00204661
-0.00191029
-0.00175267
-6.71838e-05
0.000838354
0.00194054
0.00291411
0.00371432
0.00429999
0.00473966
0.00500403
0.00511741
0.0051229
0.00506147
0.00500899
0.00503539
0.00551637
0.00586673
-0.001873
-0.00163769
-0.00125857
0.000283839
0.000660183
0.00122399
0.00166504
0.00196179
0.00211386
0.00218553
0.0021612
0.00205029
0.00188258
0.00170908
0.0016041
0.00154568
0.00206799
0.00191268
-0.00144215
-0.00224029
-0.00257782
-0.00131058
-0.00128118
-0.00106598
-0.000955188
-0.000954785
-0.00108482
-0.00125863
-0.00147226
-0.00171923
-0.00194928
-0.00212413
-0.00220389
-0.00221393
-0.00146651
-0.00161568
-0.000950485
-0.00220597
-0.00383814
-0.0035052
-0.00401617
-0.00420324
-0.00440651
-0.00465685
-0.00496687
-0.00527423
-0.00557097
-0.00583801
-0.00602701
-0.00611153
-0.00606705
-0.00593039
-0.00491125
-0.0049442
-0.000586689
-0.00153731
-0.00404822
-0.00485997
-0.00618445
-0.00698795
-0.00763609
-0.00820876
-0.00872608
-0.00915634
-0.00949707
-0.00973005
-0.00982687
-0.00977482
-0.00956786
-0.00926827
-0.00801256
-0.00783419
-0.000459702
-0.000614524
-0.00331082
-0.00492261
-0.00698962
-0.00844085
-0.00959471
-0.0105637
-0.0113608
-0.0119753
-0.012409
-0.0126559
-0.0127105
-0.0125835
-0.0122892
-0.0119304
-0.0105212
-0.010364
-0.000533876
0.000315791
-0.0022039
-0.00420365
-0.00676137
-0.00871108
-0.0102944
-0.0116323
-0.0127112
-0.013526
-0.0140848
-0.0143983
-0.014485
-0.014366
-0.0140633
-0.0136968
-0.0121993
-0.0121293
-0.00056582
0.000771702
-0.00145886
-0.00345757
-0.00614747
-0.00828683
-0.0100537
-0.0115086
-0.012643
-0.0134722
-0.0140171
-0.0143067
-0.0143704
-0.0142378
-0.0139429
-0.0135985
-0.0121353
-0.0122121
-0.000759655
0.00019373
-0.00160881
-0.00275899
-0.0047437
-0.00628551
-0.00757038
-0.00862855
-0.00945099
-0.0100466
-0.0104317
-0.0106294
-0.0106656
-0.0105639
-0.0103512
-0.0101303
-0.00892595
-0.00906861
-0.000830475
-0.000431623
-0.00215641
-0.00277113
-0.00420734
-0.00520974
-0.00603165
-0.00669524
-0.00720558
-0.00756465
-0.00777922
-0.00786586
-0.00784312
-0.00773036
-0.00754207
-0.0073705
-0.00634202
-0.00644696
-0.000925786
-0.000986653
-0.00269028
-0.00285584
-0.00376607
-0.00424491
-0.00460148
-0.00486134
-0.0050465
-0.0051418
-0.00515664
-0.00510707
-0.00500492
-0.0048646
-0.00469435
-0.00456542
-0.00370496
-0.00385414
-0.0010879
-0.00149322
-0.00300973
-0.00257384
-0.00287202
-0.0027912
-0.00266924
-0.00251688
-0.00236804
-0.00219349
-0.00200456
-0.00182405
-0.00165375
-0.00149899
-0.00136915
-0.00128686
-0.000627134
-0.000766509
-0.00132825
-0.00190447
-0.00296727
-0.0017585
-0.00138315
-0.000743755
-0.000155942
0.00037964
0.000832593
0.00124361
0.00159847
0.00188266
0.00209929
0.00225179
0.0023352
0.00233519
0.00276884
0.00254998
-0.00163026
-0.0021363
-0.0024409
-0.000401221
0.000598475
0.00169157
0.00264018
0.00345498
0.00413123
0.00470903
0.00517235
0.00552222
0.00576876
0.00591351
0.00596222
0.00590405
0.0061312
0.00591408
-0.00194751
-0.00210669
-0.00146856
0.00122537
0.0026625
0.00402791
0.00518398
0.00613995
0.00695131
0.00762721
0.0081533
0.00854432
0.00880921
0.00895322
0.00899198
0.00891377
0.00899443
0.00888319
-0.00227863
-0.00180004
-0.000323134
0.00275134
0.00442497
0.00592821
0.0071809
0.00823877
0.00911583
0.00982261
0.01039
0.0107882
0.011046
0.0112017
0.0112316
0.0111129
0.0111039
0.010999
-0.00272199
-0.00120028
0.000668043
0.00398771
0.00585899
0.00750557
0.00886513
0.0100939
0.0109908
0.0117063
0.012383
0.0127482
0.0129745
0.0132235
0.0132223
0.0130707
0.0130607
0.0130965
-0.00343273
-0.000822004
0.00113851
0.00499215
0.00725214
0.00923318
0.0108609
0.0124852
0.0134402
0.0142482
0.0152823
0.0156459
0.0159373
0.01657
0.0165857
0.0164732
0.0168305
0.0172248
-0.0028204
-0.000243108
0.00209598
0.00575501
0.00735242
0.00880006
0.0100936
0.0114212
0.0125115
0.0135325
0.014524
0.0151907
0.015751
0.0162929
0.0165562
0.0166927
0.0170447
0.0177776
-0.00142066
-0.0012621
-0.00221052
-0.00326977
-0.00426544
-0.00514043
-0.00568867
-0.00600191
-0.00610448
-0.00600642
-0.00572465
-0.00528971
-0.00458926
-0.0036179
-0.00235601
-0.000793927
0.00105841
0.00309257
0.0053372
0.00769002
0.0100081
0.0122295
0.0142828
0.016017
0.0175395
0.0187453
0.0196331
0.0202252
0.020582
0.0206858
0.0206095
0.0203748
0.020044
0.0195803
0.0190715
0.0184995
0.0179124
0.0172521
0.016603
0.0159204
0.0152254
0.0144664
0.0137141
0.0129082
0.0120721
0.0111661
0.0102532
0.00926331
0.00823578
0.00714621
0.00604757
0.00486034
0.00365275
0.00238791
0.00109772
-0.000257317
-0.00161719
-0.00300251
-0.00441022
-0.00584283
-0.0072753
-0.00871282
-0.0101474
-0.0115682
-0.0129651
-0.0143373
-0.0156772
-0.0169679
-0.0182062
-0.0193799
-0.0204935
-0.0215266
-0.0224854
-0.0233484
-0.0241272
-0.0248177
-0.0254049
-0.0258928
-0.026252
-0.0265177
-0.0266667
-0.0266863
-0.0266044
-0.026385
-0.0260683
-0.0256116
-0.0250574
-0.0243756
-0.0235799
-0.0226911
-0.0216913
-0.0206242
-0.0194639
-0.0182413
-0.0169482
-0.0155866
-0.0142013
-0.0127382
-0.0112845
-0.00976595
-0.0082634
-0.00673224
-0.00524589
-0.00373196
-0.00228042
-0.000839345
0.00059201
0.00193262
0.00324724
0.00451354
0.00568729
0.00682001
0.00785471
0.00881611
0.00967325
0.010501
0.011184
0.0118015
0.0123522
0.0128008
0.0131882
0.0134559
0.0136351
0.0137573
0.0137973
0.0137918
0.0136896
0.0135497
0.0133274
0.0129815
0.0126562
0.0122536
0.0118927
0.0113597
0.0109182
0.0103728
0.00988287
0.00936135
0.00881942
0.00820391
0.0076212
0.00694017
0.00636675
0.00571547
0.00514942
0.00454687
0.00393387
0.00337913
0.00287632
0.0024117
0.00190099
0.00152793
0.00115674
0.000754378
0.000329556
0.000101313
-0.000255286
-0.000478726
-0.000692525
-0.0010569
-0.00115703
-0.00139314
-0.00146539
-0.00170008
-0.00177303
-0.0019297
-0.00206715
-0.00207255
-0.00224621
-0.00239211
-0.00245483
-0.00245356
-0.00272106
-0.00260563
-0.00275987
-0.00286578
-0.00289635
-0.00326435
-0.00343371
-0.00376784
-0.00136795
-0.00205702
-0.00312607
-0.00407002
-0.00462297
-0.00469582
-0.00424191
-0.00330364
-0.00191233
-0.000114012
0.00198296
0.00430133
0.00675782
0.00923938
0.0116527
0.0139276
0.0159998
0.0177958
0.0192472
0.0203452
0.0210664
0.0214564
0.0215405
0.0213402
0.0209035
0.0202891
0.0195636
0.0187598
0.0179337
0.0170992
0.0162984
0.0155369
0.0148346
0.0141729
0.0135745
0.0130015
0.012471
0.0119581
0.0114624
0.0109761
0.0104725
0.00996787
0.00943856
0.00888532
0.00828739
0.00766216
0.00699103
0.00626346
0.00550989
0.0047004
0.00385595
0.00296175
0.00203555
0.00106625
6.55065e-05
-0.000974516
-0.00203689
-0.00313597
-0.00425437
-0.00536153
-0.00651118
-0.00764273
-0.0087818
-0.00988488
-0.010997
-0.0120795
-0.0131356
-0.014163
-0.0151288
-0.016068
-0.0169559
-0.0177746
-0.0185443
-0.0192186
-0.0198182
-0.0203559
-0.0208038
-0.0211692
-0.0214154
-0.0216057
-0.021639
-0.0215895
-0.0214543
-0.0211858
-0.0208443
-0.0203638
-0.0198066
-0.0191243
-0.0183087
-0.0174245
-0.0164249
-0.0153331
-0.01417
-0.0130148
-0.0117127
-0.0103353
-0.00901572
-0.00752708
-0.0061133
-0.00456468
-0.00309367
-0.00151935
-5.73067e-05
0.00152515
0.00293792
0.00438479
0.00587328
0.00720766
0.00849611
0.00986154
0.0109793
0.0120956
0.0131934
0.0142359
0.0150221
0.0158588
0.0164897
0.0171242
0.0176976
0.0179656
0.0182767
0.0184349
0.0185583
0.0187149
0.0187273
0.0187473
0.0183691
0.0181217
0.017921
0.0176448
0.0173169
0.0167102
0.0163723
0.0156986
0.0153487
0.0146047
0.0139825
0.0133933
0.0128327
0.0122753
0.0119114
0.0115042
0.0111188
0.0103176
0.00990876
0.00963546
0.00890433
0.00839187
0.00803738
0.00792535
0.00718677
0.00673297
0.00656855
0.00647595
0.00586515
0.00584031
0.00523551
0.00517593
0.00522992
0.00467736
0.00471491
0.00429811
0.0043222
0.0039874
0.00410518
0.00374656
0.0035248
0.00373658
0.00354538
0.00326762
0.00343685
0.00370652
0.00318215
0.0035656
0.00303724
0.00289458
0.00354555
0.00292194
0.00330629
0.00371833
-0.000722462
-0.000687875
-0.000981426
-0.000812518
-0.000195962
0.00078312
0.00206176
0.00358115
0.00527252
0.00704752
0.0088355
0.0105824
0.0122081
0.0136318
0.0147919
0.015652
0.0161831
0.0163987
0.0163332
0.0160346
0.0155172
0.0148554
0.0141528
0.0134369
0.0127466
0.012125
0.0116075
0.0111818
0.0108724
0.010645
0.0104924
0.0104044
0.0103867
0.0103705
0.0103832
0.0103787
0.0103751
0.0103424
0.0102661
0.0101428
0.00995923
0.00976032
0.0094914
0.00915299
0.00873799
0.00829147
0.007779
0.00717593
0.00654257
0.00582665
0.00505791
0.00424946
0.00339656
0.00249582
0.00158735
0.0006191
-0.000396715
-0.00147125
-0.00257098
-0.0036476
-0.00477037
-0.00587906
-0.00701471
-0.00811684
-0.00924121
-0.0103463
-0.0113877
-0.0124292
-0.0134066
-0.0143691
-0.0152459
-0.0160721
-0.0168556
-0.0175933
-0.0182485
-0.0187881
-0.0192686
-0.0196294
-0.0199227
-0.0201359
-0.0201861
-0.0201718
-0.020019
-0.0197591
-0.0194169
-0.0189902
-0.0184075
-0.0177338
-0.0169872
-0.0160987
-0.0151509
-0.0140654
-0.0129176
-0.0117621
-0.0104658
-0.00911137
-0.00779248
-0.00631156
-0.00486361
-0.00335573
-0.00192487
-0.000423081
0.00102966
0.00257834
0.00400662
0.00541981
0.00679145
0.00816293
0.00940257
0.0107028
0.0118235
0.012889
0.0138727
0.0148618
0.0156632
0.0163914
0.0170251
0.0175498
0.0179881
0.0182696
0.0186398
0.0188005
0.0188972
0.0188895
0.0187217
0.0187065
0.0183712
0.0181478
0.0178196
0.0175
0.0171296
0.0165851
0.016148
0.0155345
0.0151365
0.0145159
0.013978
0.0134293
0.0128584
0.0123146
0.0118044
0.0114135
0.0109677
0.0102846
0.00981989
0.00959164
0.00904981
0.00862291
0.00812082
0.00800777
0.00751931
0.00705628
0.0067415
0.0066571
0.00621832
0.00615734
0.00566605
0.00550328
0.00544114
0.00514664
0.00510735
0.00484446
0.00466685
0.00452555
0.00455157
0.00434842
0.00420963
0.00414882
0.0042639
0.00401376
0.00399639
0.00399642
0.00373045
0.00389196
0.00337489
0.0032569
0.00387632
0.00330856
0.00369283
0.00403504
-1.33094e-05
0.000780293
0.00128962
0.00224029
0.00340658
0.00467894
0.0059877
0.00726864
0.00846636
0.00953096
0.0104311
0.0111409
0.0116254
0.0118739
0.011893
0.0116893
0.0112802
0.0107272
0.0100841
0.00940285
0.00873425
0.0081367
0.0076626
0.00731968
0.00711222
0.00703806
0.00708749
0.00724411
0.00750028
0.00780865
0.00815531
0.0085286
0.00891015
0.00926425
0.00958718
0.00985375
0.0100751
0.0102511
0.0103735
0.0104265
0.0103994
0.0103149
0.0101422
0.00990722
0.00960091
0.00921849
0.00877001
0.00824413
0.00766533
0.00701175
0.0062948
0.0055194
0.00469375
0.00380793
0.00288011
0.00190336
0.000890938
-0.000152743
-0.00123038
-0.00232499
-0.00344589
-0.00456959
-0.00570476
-0.00682942
-0.00794897
-0.00905744
-0.0101266
-0.011185
-0.0121967
-0.0131786
-0.0140904
-0.014956
-0.0157487
-0.0164841
-0.017143
-0.0177179
-0.018221
-0.0186105
-0.0189212
-0.0191317
-0.0192306
-0.0192371
-0.0191251
-0.0189145
-0.0185822
-0.018163
-0.0176104
-0.0169633
-0.0162306
-0.0153643
-0.0144424
-0.0134089
-0.0123098
-0.0111429
-0.00989396
-0.00857635
-0.00723742
-0.00583432
-0.00439822
-0.00294025
-0.0014816
-1.03959e-05
0.00143774
0.00289187
0.00430805
0.0057073
0.00703657
0.00836033
0.00957716
0.0107804
0.0118844
0.0129208
0.0138569
0.0147471
0.0155225
0.0162002
0.0168139
0.0172986
0.0177136
0.0180142
0.0182795
0.0184157
0.0184806
0.0184381
0.0182805
0.018141
0.017878
0.0176125
0.0172359
0.0168694
0.016443
0.0159849
0.0155054
0.0149737
0.0144817
0.0139384
0.0134213
0.0129091
0.0123698
0.011839
0.0112824
0.0108127
0.0103221
0.00982954
0.00935366
0.00896906
0.00856377
0.00819908
0.00774052
0.00744834
0.00713635
0.00679708
0.00643997
0.00623453
0.00594602
0.00576509
0.00549232
0.00528072
0.00509467
0.00489866
0.00479395
0.00468279
0.00447124
0.00438479
0.00429578
0.00419397
0.00415229
0.00393927
0.00407473
0.00394876
0.00380667
0.00364393
0.00356487
0.00355082
0.00324275
0.00316644
0.00336266
0.00310862
0.00321697
0.00333407
0.000366945
0.00148136
0.00236718
0.00350522
0.00462732
0.00565506
0.00654802
0.00726402
0.00777794
0.00808655
0.00819326
0.00810807
0.00784376
0.00743111
0.00689964
0.00628666
0.0056437
0.005018
0.00445183
0.00398913
0.00365383
0.00346651
0.00343434
0.00355019
0.00380561
0.00417727
0.00464584
0.00519319
0.00578877
0.00641014
0.00703591
0.0076576
0.00823926
0.00877827
0.00927246
0.00970531
0.0100706
0.0103678
0.0105927
0.01074
0.0108076
0.0107974
0.0107033
0.0105321
0.0102773
0.00994559
0.00953987
0.00905561
0.00850227
0.00787835
0.00718904
0.00643428
0.00561945
0.00474697
0.00381988
0.00284896
0.00183769
0.000795227
-0.00027981
-0.00138008
-0.00249699
-0.00363039
-0.00476972
-0.00590863
-0.00703796
-0.00815304
-0.00924865
-0.0103144
-0.0113462
-0.0123348
-0.0132679
-0.0141564
-0.0149738
-0.0157214
-0.0163939
-0.0169975
-0.0175068
-0.0179252
-0.0182525
-0.0184788
-0.0186138
-0.0186319
-0.0185485
-0.0183539
-0.0180574
-0.0176475
-0.0171287
-0.0165057
-0.0157789
-0.0149533
-0.0140494
-0.0130483
-0.0119796
-0.0108195
-0.00959491
-0.00831553
-0.00698615
-0.00562299
-0.00421256
-0.00279859
-0.00135571
8.94884e-05
0.00152658
0.00293896
0.00433329
0.00569101
0.00701018
0.00828259
0.00948827
0.010629
0.0117126
0.0127135
0.0136333
0.0144636
0.0151981
0.0158653
0.0164371
0.0168994
0.0172915
0.0175825
0.0177849
0.0178973
0.0179225
0.0178668
0.0177453
0.0175367
0.0173006
0.0169822
0.0166267
0.0162215
0.01579
0.0153332
0.0148575
0.0143405
0.0138401
0.0133166
0.0127972
0.0122796
0.0117688
0.0112477
0.010723
0.0102168
0.009734
0.00929638
0.00885355
0.00841281
0.00803425
0.0076726
0.00729627
0.00695164
0.0066594
0.00639028
0.00607003
0.00580019
0.00555287
0.00534047
0.00514415
0.00494499
0.00475531
0.0045733
0.00444668
0.00432487
0.00419109
0.00406821
0.00396191
0.00385746
0.0037969
0.00363775
0.00359668
0.00352473
0.00339656
0.00327084
0.00318208
0.00313602
0.00302516
0.00293454
0.00285977
0.0027662
0.0026898
0.00267594
0.00046149
0.00148304
0.0022944
0.00318205
0.00391276
0.00445884
0.00480446
0.00494126
0.00487624
0.00463384
0.00424073
0.00372862
0.00313347
0.00250116
0.00186795
0.00127744
0.000770392
0.000376577
0.000115704
5.11823e-06
4.88773e-05
0.000247242
0.000588672
0.0010586
0.00163623
0.00229522
0.00302984
0.00381053
0.00461141
0.00541832
0.0062107
0.00698007
0.00769864
0.00836648
0.00898389
0.00952695
0.00999028
0.0103783
0.0106821
0.010905
0.0110441
0.0110934
0.0110543
0.0109341
0.0107216
0.0104284
0.0100528
0.00959729
0.00906813
0.00846332
0.0077904
0.00704984
0.00624538
0.00538283
0.00446552
0.00350081
0.00249444
0.00145323
0.000376252
-0.000727587
-0.00184903
-0.00298527
-0.00412969
-0.00527296
-0.00641073
-0.00753365
-0.0086443
-0.00971807
-0.010759
-0.011757
-0.0127075
-0.0136038
-0.0144434
-0.0152061
-0.0158941
-0.0165066
-0.0170269
-0.0174655
-0.017814
-0.0180577
-0.0182059
-0.0182482
-0.0181881
-0.0180041
-0.017725
-0.017334
-0.0168381
-0.0162278
-0.0155181
-0.0147217
-0.0138403
-0.0128588
-0.011803
-0.0106567
-0.00946374
-0.00821579
-0.00689939
-0.00556027
-0.00417808
-0.00278044
-0.00136421
5.4903e-05
0.00145804
0.00285231
0.00423767
0.00556111
0.00686818
0.00811951
0.00930367
0.0104203
0.01148
0.0124384
0.0133324
0.0141324
0.0148437
0.0154825
0.0160443
0.0164932
0.0168513
0.0171099
0.0172958
0.0173829
0.0173984
0.0173213
0.0171969
0.0169637
0.0167272
0.0163946
0.0160452
0.0156171
0.0151906
0.0147258
0.0142791
0.013769
0.013275
0.0127657
0.0122513
0.0117405
0.0112518
0.0107316
0.0102324
0.0097411
0.00927678
0.00884418
0.00842194
0.00801141
0.0076342
0.00727975
0.00692518
0.00661259
0.00631924
0.00605604
0.0057418
0.00549741
0.00525104
0.00504802
0.0048683
0.00468761
0.00450812
0.00434674
0.00419566
0.00407099
0.00395096
0.00383678
0.00372577
0.00362413
0.00353831
0.00342464
0.00329298
0.00320339
0.00310827
0.00301785
0.00292493
0.00285745
0.00281921
0.00269618
0.00257679
0.00248827
0.00236793
0.0022457
0.000292325
0.00104504
0.0015055
0.00191841
0.00213562
0.00216482
0.00201257
0.00169563
0.00123712
0.000674856
4.4615e-05
-0.000614578
-0.0012666
-0.00187008
-0.00239239
-0.00279913
-0.00307035
-0.00319706
-0.00316682
-0.00297539
-0.00263459
-0.00215634
-0.00155744
-0.000849097
-5.34111e-05
0.00079855
0.00171128
0.00264988
0.00359751
0.00452974
0.00544235
0.00631972
0.00714545
0.00790931
0.00860994
0.00923407
0.00977987
0.010243
0.0106111
0.0108971
0.0110934
0.011195
0.0112019
0.0111254
0.0109515
0.0106905
0.0103461
0.00991522
0.00940608
0.00881814
0.00815941
0.00743128
0.00663878
0.00578596
0.00487879
0.00392123
0.00292219
0.00188401
0.0008106
-0.000293106
-0.0014095
-0.0025451
-0.00369095
-0.00483443
-0.00597552
-0.00710174
-0.00821116
-0.00928898
-0.0103391
-0.0113427
-0.0123073
-0.0132145
-0.014066
-0.0148405
-0.0155392
-0.0161659
-0.016703
-0.0171563
-0.0175155
-0.0177641
-0.0179304
-0.0179918
-0.0179504
-0.0177929
-0.0175229
-0.0171432
-0.0166633
-0.0160634
-0.0153787
-0.0145929
-0.0137193
-0.0127543
-0.0117189
-0.0105948
-0.00942726
-0.00819677
-0.0068947
-0.00557633
-0.00421064
-0.00282534
-0.00142829
-2.60093e-05
0.00136134
0.00272947
0.00409802
0.00540513
0.00668624
0.00790871
0.00907926
0.0101739
0.0112106
0.0121512
0.0130326
0.0138126
0.0145092
0.0151091
0.015648
0.0160811
0.0164168
0.0166678
0.0168247
0.016888
0.0168942
0.0168086
0.0166768
0.0164309
0.0161786
0.0158498
0.0154854
0.015062
0.0146471
0.0141779
0.0137445
0.013252
0.0127584
0.0122874
0.011789
0.0112859
0.0108041
0.0102923
0.00982454
0.00936223
0.00892016
0.00850622
0.00809953
0.00771579
0.00734449
0.00700794
0.00668161
0.00637398
0.00608409
0.00582251
0.0055288
0.00533202
0.00507361
0.00487809
0.00471385
0.00454037
0.0043663
0.00421148
0.00405166
0.00393489
0.00381982
0.00371096
0.00360584
0.00350174
0.00342141
0.00331987
0.00316448
0.00305287
0.00297417
0.00287552
0.00279566
0.00271715
0.00265503
0.00252871
0.00240922
0.0023248
0.00219238
0.00201878
-8.17472e-05
0.000337842
0.000343439
0.000236107
-4.43062e-05
-0.000457956
-0.000988824
-0.00161139
-0.00229711
-0.00301268
-0.00371966
-0.00438219
-0.00497893
-0.00547014
-0.00583254
-0.00604758
-0.00610747
-0.006015
-0.00576466
-0.00536019
-0.00481471
-0.00413963
-0.00335476
-0.00248634
-0.00154258
-0.000548192
0.000492361
0.00154716
0.00259894
0.00362808
0.00463756
0.00560282
0.00651317
0.00735808
0.00813749
0.00883428
0.00944843
0.00997079
0.0103945
0.0107322
0.0109761
0.0111239
0.0111732
0.0111309
0.0109867
0.0107545
0.0104359
0.0100261
0.00953632
0.00896725
0.00832568
0.00761334
0.00683303
0.0059926
0.00509757
0.00415203
0.00316492
0.00213137
0.00106858
-2.40289e-05
-0.00113046
-0.00226397
-0.00340107
-0.0045373
-0.00567739
-0.00680551
-0.00791307
-0.00899198
-0.010044
-0.0110526
-0.0120189
-0.0129294
-0.0137776
-0.0145584
-0.015267
-0.0159068
-0.0164518
-0.0169117
-0.0172784
-0.0175356
-0.0177054
-0.0177662
-0.0177317
-0.0175905
-0.0173341
-0.0169769
-0.0165182
-0.0159384
-0.0152646
-0.0144883
-0.0136282
-0.0126786
-0.0116699
-0.0105697
-0.00941073
-0.00817942
-0.00688944
-0.00558542
-0.00424358
-0.0028848
-0.0014993
-0.00012019
0.00125891
0.00260891
0.00394891
0.0052407
0.0065036
0.00770279
0.00885804
0.00992155
0.0109346
0.0118541
0.0127217
0.0134752
0.0141553
0.0147417
0.0152504
0.0156603
0.0159788
0.0162236
0.0163503
0.0164069
0.0163826
0.0163024
0.0161735
0.0159284
0.0156614
0.0153378
0.0149863
0.0145729
0.0141684
0.0137026
0.0132517
0.0127788
0.0122986
0.0118554
0.0113856
0.0108975
0.0104335
0.00995911
0.00950662
0.00906612
0.00864448
0.00825639
0.00787175
0.00750286
0.0071388
0.0068081
0.00650713
0.00620577
0.00593848
0.00568251
0.00543382
0.0052551
0.00501369
0.00482703
0.00465851
0.00450392
0.00433108
0.00418911
0.00403721
0.00391356
0.00380461
0.00368621
0.003585
0.00347629
0.00338233
0.00329326
0.00315299
0.00305172
0.00296686
0.00284319
0.00276753
0.00268764
0.00259975
0.00250088
0.00236036
0.0022802
0.0021196
0.00193704
-0.000399035
-0.000557617
-0.000939524
-0.00151339
-0.00219612
-0.00294487
-0.00374972
-0.00457999
-0.00540112
-0.00618799
-0.00690902
-0.00754424
-0.00807222
-0.00845252
-0.00868351
-0.00876028
-0.00867214
-0.00842461
-0.00801489
-0.00745431
-0.0067581
-0.00594463
-0.00503723
-0.00404948
-0.00298883
-0.00188124
-0.000741493
0.000408111
0.00155515
0.00267653
0.00376456
0.00480837
0.00579007
0.0067014
0.00754242
0.00829908
0.00897018
0.00953727
0.0100113
0.0104001
0.0106789
0.0108586
0.0109389
0.0109237
0.0108069
0.0106024
0.0103093
0.00992406
0.00945794
0.00890962
0.00828689
0.00759382
0.00683222
0.00601047
0.00513459
0.00420508
0.00323323
0.00221636
0.00117306
9.33415e-05
-0.00100051
-0.00211847
-0.00323862
-0.00436608
-0.00549088
-0.00660588
-0.00770705
-0.00878159
-0.00982334
-0.0108254
-0.0117844
-0.0126884
-0.0135364
-0.0143193
-0.0150288
-0.0156722
-0.0162213
-0.0166819
-0.0170517
-0.0173224
-0.0174914
-0.0175587
-0.0175292
-0.0173933
-0.0171393
-0.0167982
-0.016348
-0.0157931
-0.0151207
-0.0143661
-0.0135228
-0.0125869
-0.0115834
-0.0104866
-0.00934434
-0.00814618
-0.0068779
-0.00559393
-0.00427315
-0.00292414
-0.00155116
-0.00020229
0.00115216
0.00248471
0.00380214
0.00506664
0.00629712
0.0074714
0.00859946
0.0096489
0.0106496
0.0115464
0.0123795
0.0131074
0.0137588
0.0143283
0.0148223
0.0152076
0.0155091
0.0157275
0.0158456
0.0158982
0.0158478
0.0157637
0.0156199
0.01538
0.0151197
0.0148053
0.0144681
0.0140521
0.0136577
0.0132191
0.0127786
0.0123205
0.0118648
0.0114287
0.0109752
0.0105216
0.0100973
0.00966338
0.00922962
0.00880312
0.0084057
0.00803323
0.00768387
0.00733911
0.00700595
0.00667942
0.00641105
0.00611469
0.00586901
0.00562773
0.00540783
0.00521361
0.00500602
0.00485125
0.00468256
0.00452281
0.00435656
0.00423238
0.00410257
0.00396568
0.00386789
0.00373897
0.00362871
0.00352578
0.0034226
0.00334015
0.00320449
0.00312654
0.00303985
0.00291237
0.00282991
0.00272748
0.0026523
0.00256781
0.00239799
0.00229347
0.0021182
0.00193671
-0.000703879
-0.0013562
-0.00209531
-0.00305264
-0.00406396
-0.0050907
-0.00611127
-0.00709495
-0.00801499
-0.00885269
-0.00958933
-0.0102025
-0.0106703
-0.0109743
-0.011121
-0.0111031
-0.0109101
-0.0105567
-0.0100448
-0.00938125
-0.00858826
-0.00768067
-0.00667176
-0.00557822
-0.00441499
-0.00321274
-0.00199484
-0.00076985
0.000449806
0.00163887
0.00278841
0.00389909
0.00493455
0.00589405
0.0067822
0.00757762
0.0082884
0.00889923
0.00941008
0.00983058
0.0101399
0.0103497
0.0104586
0.010471
0.0103811
0.0102024
0.00993426
0.00957428
0.00913313
0.00861021
0.00801224
0.00734551
0.0066117
0.00581616
0.00496697
0.00406291
0.00311704
0.00212935
0.00111131
5.48832e-05
-0.00101528
-0.00210474
-0.00320362
-0.00430727
-0.00541092
-0.00650521
-0.00757798
-0.00863771
-0.00966159
-0.0106423
-0.01159
-0.0124852
-0.0133271
-0.0140981
-0.0147919
-0.015431
-0.0159801
-0.0164358
-0.0167944
-0.0170748
-0.0172516
-0.017323
-0.0172902
-0.0171573
-0.016905
-0.0165602
-0.0161155
-0.015569
-0.0149099
-0.0141683
-0.0133365
-0.0124256
-0.0114351
-0.0103624
-0.00923315
-0.00805494
-0.00681291
-0.00554733
-0.0042517
-0.00293765
-0.00160021
-0.000279282
0.00104458
0.0023394
0.00362213
0.00485728
0.00605561
0.0072021
0.0082961
0.00931862
0.0102893
0.0111586
0.0119562
0.0126557
0.0132873
0.01384
0.0142966
0.0146543
0.0149509
0.01515
0.0152604
0.0153053
0.0152464
0.0151594
0.0149867
0.0147667
0.0145256
0.014209
0.0138621
0.013471
0.0131026
0.0126872
0.0122669
0.0118176
0.0113926
0.0109678
0.0105449
0.010122
0.00971842
0.00931917
0.00892291
0.00852041
0.00815759
0.00780734
0.00748349
0.00715993
0.00686615
0.00657268
0.00632754
0.00604986
0.00581904
0.00558605
0.00538396
0.00520418
0.00501428
0.00487954
0.00470624
0.00454224
0.00439861
0.00428155
0.00417962
0.00403977
0.00394619
0.00382151
0.00370455
0.00361383
0.00351366
0.00343561
0.00331337
0.00325027
0.00316399
0.00302706
0.00293815
0.00281897
0.00276322
0.00266289
0.00250162
0.002381
0.00221758
0.00204511
-0.000947159
-0.00193254
-0.00299414
-0.00429159
-0.00560298
-0.00686659
-0.00806446
-0.0091815
-0.0101987
-0.011104
-0.0118706
-0.0124811
-0.0129303
-0.013207
-0.0133089
-0.0132319
-0.012977
-0.0125514
-0.0119526
-0.0111979
-0.0103181
-0.00932913
-0.00823525
-0.00706493
-0.00583922
-0.00457927
-0.00329801
-0.00200167
-0.000728231
0.00050721
0.00169831
0.00284019
0.00390673
0.00489778
0.00581485
0.00663955
0.0073689
0.00800233
0.00853917
0.00897829
0.00930999
0.00954466
0.00967602
0.00971315
0.00964803
0.00949371
0.00925183
0.00892293
0.00851152
0.00802096
0.00745669
0.00682371
0.00612538
0.00536675
0.004553
0.00368768
0.00278246
0.00183466
0.000851997
-0.000162363
-0.00119166
-0.00224209
-0.00330648
-0.00437348
-0.00544063
-0.00650064
-0.00754122
-0.00856608
-0.00955716
-0.010516
-0.011437
-0.012307
-0.0131192
-0.0138727
-0.0145541
-0.015169
-0.0156904
-0.0161356
-0.0164922
-0.0167666
-0.0169321
-0.0170017
-0.0169592
-0.0168219
-0.0165874
-0.0162514
-0.0158138
-0.0152653
-0.0146204
-0.0138814
-0.0130636
-0.0121663
-0.011206
-0.0101603
-0.009056
-0.00790578
-0.00670098
-0.00546722
-0.00421544
-0.00293995
-0.00164243
-0.000367336
0.000914723
0.00216424
0.00341005
0.00460367
0.00575914
0.00686328
0.00791388
0.00888448
0.00981463
0.0106464
0.011419
0.0120963
0.0126996
0.0132289
0.0136546
0.0139884
0.0142519
0.0144287
0.0145323
0.0145762
0.0145134
0.0144228
0.0142466
0.0140357
0.0138032
0.0134865
0.0131612
0.0128072
0.0124457
0.0120459
0.0116622
0.0112466
0.0108501
0.0104452
0.0100537
0.00964649
0.00927177
0.00892498
0.00856228
0.00819948
0.0078739
0.00754545
0.00723925
0.00694185
0.0066731
0.00641986
0.00619681
0.00594333
0.00574185
0.00553066
0.00534092
0.00518468
0.00499975
0.0048747
0.00471111
0.00458263
0.00445398
0.00431558
0.00422046
0.0040981
0.00402191
0.00390672
0.00379428
0.00371013
0.00360313
0.00353259
0.0034139
0.00334609
0.00326128
0.00315598
0.00306656
0.00296104
0.00287947
0.00277924
0.00261675
0.00251238
0.00235614
0.00219882
-0.00114364
-0.00234849
-0.00374454
-0.00535239
-0.00689718
-0.00833281
-0.00966991
-0.0109015
-0.0120149
-0.0129939
-0.013814
-0.0144636
-0.0149268
-0.015191
-0.0152606
-0.0151286
-0.014812
-0.0143203
-0.013651
-0.0128369
-0.0118975
-0.0108457
-0.00969563
-0.00847783
-0.00720609
-0.0059076
-0.00460025
-0.00328924
-0.00200108
-0.000752964
0.000450431
0.0016047
0.002679
0.00367658
0.00459571
0.00542402
0.00616147
0.00680618
0.00734599
0.00779166
0.00813437
0.00838253
0.00852882
0.00858703
0.00854769
0.00842276
0.00821247
0.00791795
0.00754087
0.0070888
0.00656709
0.00597791
0.0053259
0.00461515
0.0038526
0.00304017
0.0021853
0.0012912
0.000365088
-0.000592119
-0.00156794
-0.00256684
-0.00357869
-0.00459356
-0.00561013
-0.00662009
-0.00760846
-0.00858498
-0.00953303
-0.0104481
-0.0113232
-0.0121561
-0.0129203
-0.0136412
-0.0142851
-0.0148639
-0.0153591
-0.0157707
-0.0161075
-0.016354
-0.0165008
-0.0165603
-0.0165107
-0.0163772
-0.0161308
-0.0157885
-0.015349
-0.0148114
-0.014191
-0.0134813
-0.0126923
-0.0118149
-0.0108837
-0.00986581
-0.00879755
-0.00768839
-0.00652671
-0.00534156
-0.00414324
-0.0029079
-0.00168013
-0.000462994
0.000764949
0.00196322
0.00314773
0.00428141
0.00538065
0.00642908
0.00742313
0.00834103
0.0092228
0.0100012
0.0107351
0.0113763
0.0119396
0.0124155
0.0128237
0.0131348
0.0133656
0.0135218
0.0136159
0.0136461
0.0135755
0.013492
0.0133286
0.0131249
0.0129052
0.0126145
0.0123107
0.0119808
0.0116331
0.0112568
0.0109201
0.0105388
0.0101703
0.00980162
0.00944628
0.00907096
0.00872572
0.00842534
0.00808532
0.00776978
0.00748626
0.00718317
0.00689532
0.00665662
0.00640534
0.00616978
0.00596648
0.00575345
0.00558621
0.00539051
0.00521553
0.00506457
0.00489289
0.0047773
0.00465045
0.00454477
0.00444281
0.00428441
0.00421185
0.0041028
0.00403119
0.00393431