/*--------------------------------*- C++ -*----------------------------------*\
  =========                 |
  \\      /  F ield         | OpenFOAM: The Open Source CFD Toolbox
   \\    /   O peration     | Website:  https://openfoam.org
    \\  /    A nd           | Version:  8
     \\/     M anipulation  |
\*---------------------------------------------------------------------------*/
FoamFile
{
    version     2.0;
    format      ascii;
    class       volScalarField;
    location    "100";
    object      upod_0;
}
// * * * * * * * * * * * * * * * * * * * * * * * * * * * * * * * * * * * * * //

dimensions      [0 1 -1 0 0 0 0];

internalField   nonuniform List<scalar> 
12225
(
-0.0140015
-0.0136538
-0.0133549
-0.0129988
-0.0126798
-0.0124058
-0.0121673
-0.0119586
-0.0117742
-0.0116138
-0.0114709
-0.0113435
-0.0112253
-0.0111165
-0.0109942
-0.0109188
-0.0107147
-0.0106592
-0.0142789
-0.0143192
-0.0143096
-0.01422
-0.014126
-0.0140328
-0.0139353
-0.0138305
-0.0137252
-0.0136196
-0.0135137
-0.0134166
-0.0133213
-0.0132317
-0.0131483
-0.0130682
-0.0130083
-0.0130155
-0.0142019
-0.014205
-0.0142282
-0.0142083
-0.0141855
-0.0141603
-0.0141297
-0.0140914
-0.0140498
-0.0140039
-0.0139544
-0.0139071
-0.013858
-0.0138086
-0.0137604
-0.0137085
-0.0136784
-0.0136996
-0.0141896
-0.0141856
-0.0142029
-0.014188
-0.0141747
-0.0141628
-0.0141493
-0.0141318
-0.0141126
-0.0140906
-0.0140668
-0.0140437
-0.0140195
-0.0139948
-0.0139714
-0.0139471
-0.0139356
-0.0139569
-0.0141883
-0.0141853
-0.0141966
-0.0141785
-0.0141651
-0.0141553
-0.014146
-0.0141347
-0.0141226
-0.014109
-0.0140948
-0.014081
-0.0140671
-0.0140534
-0.014042
-0.0140319
-0.0140302
-0.0140468
-0.0141871
-0.0141845
-0.0141949
-0.0141759
-0.0141622
-0.0141523
-0.0141437
-0.0141342
-0.0141246
-0.0141143
-0.0141041
-0.0140944
-0.0140853
-0.0140772
-0.0140717
-0.0140685
-0.0140711
-0.0140838
-0.0141859
-0.0141819
-0.014195
-0.0141776
-0.0141646
-0.0141546
-0.014146
-0.014137
-0.0141285
-0.0141198
-0.0141117
-0.0141043
-0.0140983
-0.0140937
-0.0140916
-0.014092
-0.0140959
-0.0141053
-0.0141848
-0.0141802
-0.0141961
-0.0141815
-0.0141702
-0.0141608
-0.0141525
-0.014144
-0.0141365
-0.0141289
-0.0141224
-0.0141169
-0.0141131
-0.0141109
-0.0141109
-0.0141135
-0.0141171
-0.0141245
-0.0141835
-0.0141798
-0.0141976
-0.0141862
-0.0141774
-0.0141693
-0.0141619
-0.0141543
-0.0141479
-0.0141417
-0.0141367
-0.014133
-0.014131
-0.0141306
-0.0141322
-0.0141361
-0.0141392
-0.0141455
-0.0141825
-0.0141802
-0.014199
-0.0141909
-0.014185
-0.0141785
-0.0141722
-0.0141657
-0.0141607
-0.0141562
-0.0141528
-0.0141509
-0.0141505
-0.0141517
-0.0141547
-0.0141595
-0.0141625
-0.0141685
-0.014182
-0.0141821
-0.0141996
-0.0141934
-0.0141899
-0.0141851
-0.0141802
-0.0141751
-0.0141713
-0.0141683
-0.0141665
-0.0141664
-0.0141677
-0.0141706
-0.0141752
-0.0141811
-0.0141848
-0.0141907
-0.0141827
-0.0141778
-0.0141895
-0.0141853
-0.0141854
-0.014184
-0.0141825
-0.0141814
-0.0141813
-0.0141818
-0.0141836
-0.0141867
-0.0141913
-0.0141973
-0.0142045
-0.014213
-0.0142191
-0.0142284
-0.0141812
-0.0141736
-0.0141817
-0.0141773
-0.0141817
-0.0141853
-0.0141893
-0.0141939
-0.0141994
-0.0142054
-0.0142121
-0.0142199
-0.0142287
-0.0142386
-0.0142491
-0.0142611
-0.0142692
-0.0142848
-0.014177
-0.0141773
-0.01419
-0.014187
-0.0141938
-0.0142002
-0.0142078
-0.0142166
-0.0142267
-0.0142374
-0.0142485
-0.0142603
-0.0142727
-0.0142856
-0.0142988
-0.0143129
-0.0143212
-0.0143386
-0.0141719
-0.0141762
-0.0141983
-0.0142036
-0.0142153
-0.0142252
-0.014236
-0.0142483
-0.0142618
-0.0142757
-0.0142899
-0.0143046
-0.0143194
-0.0143343
-0.0143488
-0.0143637
-0.0143716
-0.0143896
-0.0141681
-0.0141705
-0.0141979
-0.0142129
-0.0142328
-0.0142491
-0.0142646
-0.0142807
-0.0142974
-0.0143139
-0.0143304
-0.0143468
-0.0143629
-0.0143784
-0.0143931
-0.0144078
-0.0144145
-0.014431
-0.0141664
-0.0141634
-0.0141903
-0.0142113
-0.0142381
-0.0142605
-0.0142808
-0.0143009
-0.0143209
-0.0143403
-0.0143589
-0.0143764
-0.0143929
-0.0144084
-0.0144228
-0.014437
-0.0144423
-0.0144584
-0.0141667
-0.0141568
-0.0141808
-0.0142035
-0.0142339
-0.0142602
-0.0142838
-0.0143069
-0.0143294
-0.0143504
-0.0143699
-0.014388
-0.0144046
-0.0144196
-0.0144332
-0.0144466
-0.0144503
-0.0144662
-0.0141673
-0.0141537
-0.0141751
-0.0141967
-0.0142271
-0.0142544
-0.0142788
-0.014302
-0.014324
-0.0143441
-0.0143624
-0.0143791
-0.0143941
-0.0144075
-0.0144195
-0.0144312
-0.0144335
-0.0144484
-0.0141689
-0.0141586
-0.0141774
-0.0141923
-0.0142165
-0.0142382
-0.014258
-0.0142769
-0.0142951
-0.0143119
-0.0143273
-0.0143412
-0.0143539
-0.0143654
-0.0143758
-0.0143861
-0.014388
-0.0144007
-0.0141698
-0.0141632
-0.0141828
-0.0141947
-0.0142146
-0.0142319
-0.0142476
-0.0142628
-0.0142775
-0.0142913
-0.0143038
-0.0143151
-0.0143254
-0.0143347
-0.014343
-0.0143513
-0.0143521
-0.0143618
-0.014171
-0.0141675
-0.0141886
-0.0141981
-0.0142142
-0.014227
-0.0142388
-0.0142502
-0.0142613
-0.0142714
-0.0142804
-0.0142885
-0.0142957
-0.0143021
-0.0143076
-0.0143132
-0.0143123
-0.0143191
-0.0141727
-0.0141713
-0.0141933
-0.0141996
-0.0142107
-0.0142185
-0.0142258
-0.0142327
-0.0142393
-0.0142451
-0.01425
-0.0142543
-0.014258
-0.014261
-0.0142636
-0.0142661
-0.0142633
-0.0142665
-0.0141751
-0.0141743
-0.0141952
-0.0141966
-0.0142018
-0.0142043
-0.0142069
-0.0142093
-0.0142115
-0.0142131
-0.0142142
-0.014215
-0.0142155
-0.0142157
-0.0142157
-0.0142158
-0.0142115
-0.0142123
-0.0141778
-0.0141756
-0.0141935
-0.0141889
-0.014188
-0.0141861
-0.014185
-0.0141842
-0.0141832
-0.0141817
-0.0141801
-0.0141783
-0.0141763
-0.0141741
-0.0141717
-0.0141694
-0.0141637
-0.0141614
-0.014179
-0.0141725
-0.0141871
-0.0141791
-0.0141745
-0.0141702
-0.0141674
-0.014165
-0.014162
-0.0141582
-0.0141542
-0.0141499
-0.0141452
-0.0141402
-0.0141348
-0.0141294
-0.0141215
-0.0141147
-0.0141773
-0.0141631
-0.0141772
-0.0141717
-0.0141684
-0.0141647
-0.0141612
-0.0141565
-0.0141504
-0.0141432
-0.0141349
-0.0141261
-0.0141168
-0.0141065
-0.0140957
-0.014085
-0.0140718
-0.0140591
-0.0141809
-0.0141674
-0.0141823
-0.0141773
-0.0141745
-0.0141696
-0.0141616
-0.0141485
-0.0141332
-0.0141154
-0.0140944
-0.0140739
-0.0140523
-0.0140286
-0.0140055
-0.0139827
-0.0139574
-0.0139319
-0.0142322
-0.0142708
-0.0142779
-0.0142339
-0.0141919
-0.0141501
-0.0141049
-0.0140519
-0.0139996
-0.0139449
-0.013886
-0.0138329
-0.01378
-0.0137244
-0.0136749
-0.013628
-0.0135778
-0.0135291
-0.0141015
-0.0139633
-0.0138024
-0.0135763
-0.0133609
-0.013167
-0.0129958
-0.0128424
-0.0127081
-0.0125893
-0.0124836
-0.0123914
-0.0123091
-0.0122349
-0.0121693
-0.0121106
-0.0120541
-0.0119975
-6.12768e-05
-0.000113601
-0.000167398
-0.000219486
-0.000248899
-0.000259748
-0.000254038
-0.000230321
-0.000190068
-0.000135768
-7.11026e-05
1.773e-06
8.23721e-05
0.000167556
0.000257334
0.00034915
0.000444108
0.000540166
0.000642223
0.000747464
0.000857411
0.000974635
0.0010999
0.00122548
0.0013564
0.00149097
0.00162809
0.00176648
0.00190427
0.0020409
0.0021745
0.00230414
0.00242833
0.00254735
0.00265967
0.00276543
0.0028639
0.00295596
0.00304056
0.00311855
0.00318975
0.00325519
0.00331408
0.00336769
0.00341578
0.00345932
0.00349747
0.00353171
0.00356156
0.0035877
0.00360947
0.00362834
0.00364328
0.00365525
0.00366372
0.00366998
0.00367286
0.00367326
0.00367097
0.00366654
0.00365891
0.00364932
0.00363718
0.00362292
0.00360569
0.00358676
0.00356496
0.00354096
0.0035143
0.00348576
0.00345427
0.00342075
0.00338466
0.00334638
0.00330511
0.00326171
0.00321534
0.00316658
0.00311545
0.00306181
0.00300543
0.00294693
0.00288551
0.00282201
0.00275555
0.00268678
0.00261535
0.00254188
0.00246624
0.00238866
0.00230884
0.0022261
0.00214065
0.00205266
0.00196251
0.00187033
0.00177591
0.00167988
0.00158167
0.00148201
0.00138038
0.00127734
0.00117243
0.00106643
0.000958828
0.00085038
0.00074134
0.000631143
0.000520645
0.000409815
0.000298346
0.000186913
7.5252e-05
-3.64485e-05
-0.000148215
-0.000259164
-0.000370234
-0.000480577
-0.000590112
-0.000698819
-0.000806381
-0.000913495
-0.00101975
-0.00112458
-0.0012278
-0.00132896
-0.00142867
-0.00152618
-0.00162206
-0.0017169
-0.00180901
-0.00189909
-0.00198639
-0.00207289
-0.00215615
-0.00223774
-0.00231627
-0.00239262
-0.00246684
-0.00253916
-0.00260888
-0.00267748
-0.00274315
-0.00280741
-0.00286871
-0.00292876
-0.00298722
-0.00304329
-0.00309655
-0.00314799
-0.00319831
-0.00324569
-0.00329141
-0.0033364
-0.00338022
-0.00342076
-0.00346121
-0.00349914
-0.0035362
-0.00357336
-0.00360702
-0.00364057
-0.00367192
-0.00370367
-0.00373287
-0.00376176
-0.00378948
-0.00381474
-0.00384041
-0.00386441
-0.00388554
-0.00390357
-0.00392156
-0.00393201
-0.0039393
-0.00393769
-0.00392375
-0.00388423
-0.00382123
-0.00359758
-2.69932e-05
-7.74193e-05
-0.000100467
-9.92422e-05
-7.97676e-05
-4.53282e-05
2.03928e-06
5.92718e-05
0.000124916
0.000198953
0.000280686
0.000369726
0.000465729
0.000568996
0.000678388
0.000793837
0.000914644
0.00104073
0.00117081
0.00130438
0.00143994
0.00157696
0.00171449
0.00185168
0.00198684
0.00211839
0.00224538
0.00236679
0.00248204
0.00259048
0.00269197
0.00278628
0.00287347
0.00295362
0.00302718
0.00309425
0.00315529
0.0032106
0.00326052
0.00330547
0.00334555
0.00338136
0.00341302
0.00344088
0.00346501
0.00348596
0.00350364
0.00351823
0.00353004
0.00353895
0.00354514
0.00354859
0.00354951
0.00354798
0.00354411
0.00353797
0.0035296
0.00351887
0.00350594
0.00349102
0.00347357
0.00345419
0.00343259
0.00340917
0.0033834
0.00335556
0.00332556
0.00329333
0.00325906
0.00322246
0.00318361
0.00314262
0.00309925
0.00305382
0.00300605
0.00295577
0.00290311
0.00284804
0.00279085
0.00273094
0.00266912
0.00260481
0.00253792
0.00246893
0.00239721
0.00232339
0.00224697
0.00216852
0.00208837
0.00200612
0.00192186
0.00183513
0.00174582
0.00165359
0.00156004
0.00146471
0.00136647
0.00126754
0.00116597
0.00106365
0.000958958
0.000853646
0.000745978
0.000638126
0.00052783
0.00041711
0.000306363
0.000193983
8.10297e-05
-3.11003e-05
-0.000145143
-0.000258817
-0.000371961
-0.000484831
-0.000599099
-0.000711783
-0.00082489
-0.000936635
-0.00104728
-0.00115901
-0.00126871
-0.00137789
-0.00148554
-0.00159084
-0.00169525
-0.00179738
-0.00190053
-0.00200012
-0.00209666
-0.00219151
-0.00228442
-0.00237726
-0.00246522
-0.00255347
-0.00263669
-0.00272098
-0.00280201
-0.00288028
-0.00295595
-0.00302944
-0.00309888
-0.00316654
-0.00323212
-0.00329932
-0.00336106
-0.00341969
-0.00348083
-0.00353812
-0.00359231
-0.00364295
-0.00369776
-0.0037485
-0.00379491
-0.00383924
-0.00388714
-0.0039285
-0.00397343
-0.0040128
-0.00404971
-0.00409121
-0.0041264
-0.00416446
-0.00419782
-0.00423316
-0.00426389
-0.00429764
-0.00432925
-0.00435592
-0.00438498
-0.00441373
-0.00443733
-0.0044584
-0.00448457
-0.00450056
-0.00452077
-0.00453305
-0.00453323
-0.00453374
-0.00452652
-0.00446989
1.05396e-05
7.75039e-06
3.80464e-05
8.11963e-05
0.000131987
0.000190695
0.000256939
0.00032964
0.00040808
0.000491797
0.000580587
0.000674536
0.000773426
0.000877048
0.000985084
0.00109728
0.00121288
0.00133109
0.00145094
0.00157121
0.00168987
0.0018057
0.0019183
0.0020268
0.00213033
0.00222837
0.00232068
0.0024069
0.00248733
0.00256195
0.00263111
0.00269517
0.00275464
0.00280946
0.00286026
0.002907
0.00295011
0.00298965
0.00302567
0.00305836
0.00308775
0.00311439
0.00313795
0.00315856
0.00317625
0.00319152
0.00320405
0.00321375
0.0032212
0.00322599
0.00322837
0.00322852
0.00322646
0.00322213
0.0032159
0.00320733
0.00319654
0.00318348
0.00316835
0.00315146
0.00313225
0.00311122
0.00308795
0.00306296
0.00303566
0.00300633
0.00297533
0.00294197
0.00290676
0.00286923
0.00282988
0.00278836
0.00274451
0.00269827
0.00264988
0.00259953
0.00254667
0.00249178
0.00243442
0.00237461
0.00231305
0.00224886
0.00218262
0.0021141
0.00204306
0.00196953
0.00189417
0.00181655
0.00173667
0.00165528
0.00157148
0.00148571
0.00139748
0.00130654
0.00121425
0.00112006
0.00102322
0.000925674
0.000825884
0.000724769
0.000621331
0.000517021
0.000410957
0.00030456
0.000196203
8.70711e-05
-2.28247e-05
-0.000133005
-0.000244419
-0.00035518
-0.000467232
-0.000579303
-0.000691419
-0.000802759
-0.000914803
-0.00102633
-0.00113733
-0.00124792
-0.00135774
-0.00146731
-0.00157441
-0.00168152
-0.00178733
-0.001892
-0.00199596
-0.00209635
-0.00219714
-0.0022946
-0.00239052
-0.00248423
-0.00257592
-0.00266665
-0.00275396
-0.00284041
-0.00292278
-0.00300469
-0.00308361
-0.00316023
-0.00323488
-0.00330712
-0.00337693
-0.00344373
-0.00350906
-0.00357442
-0.00363599
-0.00369372
-0.00375265
-0.00380886
-0.00386396
-0.00391433
-0.00396646
-0.00401685
-0.00406445
-0.00410892
-0.00415533
-0.00419706
-0.00424113
-0.00428152
-0.0043198
-0.00435927
-0.00439539
-0.00443231
-0.00446772
-0.00450193
-0.00453374
-0.00456664
-0.00459798
-0.00462758
-0.00465479
-0.00468396
-0.00470964
-0.00473363
-0.0047583
-0.00477679
-0.0047979
-0.00481165
-0.00481389
-0.00481789
-0.00481213
-0.00478703
5.23235e-05
8.57345e-05
0.000153384
0.000226629
0.000300842
0.000377082
0.000455986
0.000537479
0.000621466
0.000707916
0.000796905
0.000888484
0.000982493
0.00107876
0.00117706
0.00127686
0.00137735
0.00147776
0.0015771
0.00167425
0.00176813
0.00185801
0.00194358
0.00202446
0.00210051
0.00217172
0.00223827
0.00230039
0.00235851
0.00241273
0.00246344
0.00251099
0.00255559
0.00259724
0.00263617
0.00267231
0.00270586
0.00273693
0.00276552
0.00279156
0.00281497
0.00283601
0.00285443
0.00287051
0.00288417
0.00289543
0.00290438
0.00291094
0.00291535
0.00291744
0.00291732
0.00291505
0.00291068
0.00290416
0.00289563
0.00288502
0.00287242
0.00285791
0.0028414
0.00282298
0.00280255
0.0027803
0.00275604
0.00272994
0.00270188
0.00267184
0.00263999
0.00260603
0.00257019
0.00253225
0.00249247
0.00245056
0.00240669
0.00236063
0.00231246
0.00226216
0.00220956
0.002155
0.00209814
0.0020391
0.00197795
0.00191448
0.00184891
0.00178106
0.00171112
0.00163883
0.0015646
0.00148819
0.0014097
0.00132965
0.00124722
0.00116275
0.00107596
0.000987074
0.000896407
0.000803976
0.000709508
0.000613536
0.000515939
0.000416764
0.000315993
0.000213894
0.000110322
5.71407e-06
-0.000100072
-0.000206584
-0.000314105
-0.000421932
-0.000530725
-0.000639507
-0.000748857
-0.000858302
-0.000967957
-0.00107727
-0.00118662
-0.00129568
-0.001404
-0.00151204
-0.0016192
-0.00172573
-0.00183089
-0.00193542
-0.00203868
-0.00214084
-0.00224192
-0.00234067
-0.00243823
-0.00253348
-0.00262735
-0.00271895
-0.00280873
-0.0028964
-0.00298184
-0.00306544
-0.0031465
-0.00322573
-0.00330245
-0.00337683
-0.00344933
-0.00351963
-0.00358815
-0.00365401
-0.00371821
-0.00378049
-0.00384075
-0.00389856
-0.00395502
-0.00400939
-0.00406293
-0.00411371
-0.00416327
-0.00421152
-0.00425851
-0.00430313
-0.00434734
-0.00438932
-0.00443084
-0.00447083
-0.00450963
-0.00454763
-0.00458379
-0.00461897
-0.00465417
-0.00468749
-0.00471993
-0.00475166
-0.00478184
-0.00481255
-0.00483947
-0.00486747
-0.00489422
-0.00491983
-0.00494319
-0.00496371
-0.00498405
-0.00499901
-0.0050077
-0.00501433
-0.00501733
-0.00500975
8.22832e-05
0.000138564
0.000228417
0.000321112
0.000411134
0.000499298
0.000586459
0.000672919
0.00075885
0.000844525
0.000930142
0.0010158
0.00110144
0.00118695
0.00127205
0.00135628
0.00143919
0.00152015
0.00159856
0.00167385
0.00174552
0.00181333
0.00187719
0.00193712
0.00199332
0.00204599
0.00209539
0.00214185
0.00218554
0.00222673
0.00226556
0.00230225
0.00233673
0.00236914
0.00239958
0.00242798
0.00245432
0.00247864
0.00250089
0.00252102
0.00253903
0.00255494
0.00256867
0.00258031
0.0025898
0.00259724
0.00260257
0.0026058
0.00260702
0.00260622
0.00260341
0.00259861
0.00259185
0.00258314
0.00257248
0.00255998
0.00254561
0.00252944
0.00251143
0.00249161
0.00246998
0.00244651
0.00242124
0.00239415
0.00236526
0.00233453
0.00230194
0.0022675
0.00223117
0.00219297
0.00215292
0.00211085
0.00206689
0.00202096
0.00197301
0.00192292
0.00187084
0.0018167
0.00176046
0.00170215
0.00164166
0.00157918
0.00151455
0.00144785
0.00137899
0.0013081
0.00123517
0.00116023
0.00108344
0.00100485
0.000924175
0.000841463
0.000756555
0.000669857
0.000581325
0.000490989
0.000398955
0.00030523
0.000210076
0.000113251
1.51286e-05
-8.43499e-05
-0.000185089
-0.000287045
-0.000389936
-0.000493688
-0.00059814
-0.000703202
-0.000808857
-0.000914927
-0.00102118
-0.00112764
-0.00123414
-0.00134063
-0.00144701
-0.00155284
-0.00165819
-0.00176312
-0.00186715
-0.00197047
-0.0020729
-0.00217437
-0.00227473
-0.0023738
-0.00247137
-0.00256757
-0.00266181
-0.00275449
-0.00284524
-0.00293421
-0.00302117
-0.00310606
-0.00318879
-0.00326963
-0.00334814
-0.00342467
-0.00349896
-0.00357103
-0.00364095
-0.00370894
-0.00377502
-0.0038391
-0.00390124
-0.00396115
-0.00401928
-0.00407579
-0.00413027
-0.00418297
-0.00423422
-0.00428385
-0.00433175
-0.00437797
-0.00442323
-0.00446701
-0.00450954
-0.00455057
-0.00459031
-0.00462901
-0.00466674
-0.00470355
-0.00473891
-0.00477328
-0.00480692
-0.00483965
-0.00487144
-0.00490242
-0.00493208
-0.00496167
-0.0049895
-0.00501656
-0.00504286
-0.00506794
-0.00509127
-0.00511236
-0.00513171
-0.00514809
-0.00516164
-0.00517164
-0.00518257
-0.00518784
9.77221e-05
0.000167673
0.000269302
0.000372768
0.000470989
0.000564743
0.000654855
0.000741819
0.000826024
0.000907802
0.000987398
0.00106496
0.00114053
0.00121411
0.00128554
0.00135465
0.00142125
0.00148506
0.00154582
0.00160337
0.00165763
0.00170863
0.00175646
0.00180131
0.00184339
0.00188287
0.00192009
0.0019552
0.00198833
0.00201965
0.00204922
0.00207716
0.00210339
0.00212802
0.0021511
0.00217249
0.00219215
0.00221013
0.00222633
0.00224077
0.00225343
0.00226422
0.00227316
0.0022803
0.00228553
0.00228893
0.00229049
0.00229021
0.00228813
0.00228422
0.00227852
0.00227103
0.00226175
0.00225072
0.00223793
0.00222343
0.00220723
0.00218935
0.00216975
0.00214846
0.0021255
0.00210083
0.00207448
0.00204644
0.00201668
0.00198522
0.00195195
0.00191702
0.0018803
0.00184183
0.00180155
0.00175944
0.00171545
0.00166965
0.00162195
0.00157228
0.00152074
0.00146717
0.00141159
0.0013541
0.00129458
0.00123309
0.00116957
0.0011042
0.00103672
0.000967309
0.000895931
0.000822739
0.000747751
0.000670954
0.000592223
0.000511612
0.000428982
0.000344661
0.000258453
0.000170544
8.11878e-05
-9.86616e-06
-0.000102312
-0.000196245
-0.000291496
-0.000388022
-0.000485794
-0.000584562
-0.000684104
-0.000784687
-0.00088573
-0.000987404
-0.00108965
-0.0011923
-0.0012951
-0.00139826
-0.0015013
-0.00160435
-0.00170721
-0.00180955
-0.00191128
-0.00201262
-0.00211324
-0.00221317
-0.00231209
-0.00241013
-0.00250694
-0.00260261
-0.00269666
-0.00278956
-0.00288034
-0.00296975
-0.00305712
-0.00314301
-0.00322671
-0.00330854
-0.00338797
-0.00346575
-0.00354125
-0.00361477
-0.00368622
-0.00375554
-0.00382264
-0.00388807
-0.00395147
-0.00401302
-0.00407265
-0.00413027
-0.00418607
-0.00424021
-0.0042926
-0.00434327
-0.00439246
-0.00443996
-0.00448603
-0.00453049
-0.00457407
-0.00461599
-0.0046569
-0.00469633
-0.00473448
-0.00477162
-0.00480788
-0.00484314
-0.00487743
-0.00491062
-0.00494298
-0.00497451
-0.00500526
-0.00503517
-0.00506411
-0.00509245
-0.00512021
-0.0051467
-0.00517216
-0.00519648
-0.00521954
-0.00524085
-0.00526009
-0.00527786
-0.00529389
-0.00530763
-0.00532406
-0.0053385
0.000101624
0.000180955
0.000285619
0.000391851
0.000491276
0.000584532
0.000672541
0.000755844
0.000834908
0.000910141
0.000981809
0.00105012
0.00111519
0.00117713
0.00123599
0.00129184
0.00134467
0.00139442
0.00144116
0.00148499
0.00152597
0.00156421
0.00159989
0.00163324
0.00166445
0.00169359
0.00172105
0.00174683
0.00177107
0.00179378
0.00181511
0.0018351
0.00185373
0.00187099
0.00188693
0.00190148
0.00191463
0.00192636
0.00193655
0.00194531
0.00195253
0.00195818
0.00196225
0.00196479
0.00196567
0.00196495
0.00196264
0.0019587
0.00195317
0.00194604
0.00193733
0.00192703
0.00191515
0.0019017
0.00188669
0.00187012
0.00185202
0.00183236
0.00181114
0.00178834
0.00176406
0.00173817
0.00171071
0.0016817
0.00165108
0.00161888
0.00158505
0.00154964
0.00151253
0.00147382
0.00143335
0.0013912
0.00134727
0.00130168
0.00125431
0.00120509
0.00115409
0.00110121
0.00104648
0.000990003
0.000931515
0.000871167
0.000808928
0.000744895
0.000679024
0.000611315
0.000541725
0.000470495
0.000397446
0.000322807
0.000246393
0.000168148
8.79814e-05
6.23152e-06
-7.73256e-05
-0.000162413
-0.000248814
-0.000336872
-0.000426193
-0.000516872
-0.000608846
-0.000701991
-0.000796278
-0.000891559
-0.000987466
-0.00108435
-0.00118173
-0.00127972
-0.00137811
-0.00147693
-0.00157588
-0.00167514
-0.00177422
-0.00187335
-0.0019722
-0.00207076
-0.00216859
-0.00226596
-0.00236271
-0.00245865
-0.00255378
-0.002648
-0.00274091
-0.00283269
-0.00292289
-0.00301202
-0.00309913
-0.00318479
-0.00326864
-0.00335088
-0.00343094
-0.00350933
-0.00358528
-0.00365961
-0.00373187
-0.0038019
-0.00387012
-0.00393639
-0.00400053
-0.00406307
-0.00412349
-0.00418213
-0.00423897
-0.00429391
-0.00434718
-0.00439873
-0.00444876
-0.00449705
-0.00454387
-0.00458924
-0.00463324
-0.00467574
-0.00471729
-0.00475695
-0.00479614
-0.00483377
-0.00487012
-0.00490559
-0.00494022
-0.00497387
-0.00500673
-0.00503845
-0.0050694
-0.00509958
-0.005129
-0.00515772
-0.0051855
-0.00521271
-0.00523968
-0.00526549
-0.00529011
-0.00531392
-0.00533647
-0.00535778
-0.00537756
-0.00539633
-0.00541413
-0.00543081
-0.00545128
-0.00547179
9.87246e-05
0.000181327
0.000282684
0.000385605
0.000480916
0.000569139
0.000651213
0.000727744
0.00079923
0.000866085
0.000928663
0.000987222
0.00104191
0.001093
0.00114067
0.0011851
0.00122641
0.00126466
0.00130005
0.00133276
0.00136295
0.0013908
0.00141647
0.00144005
0.00146182
0.00148186
0.00150045
0.0015176
0.00153341
0.00154792
0.00156135
0.00157364
0.0015848
0.00159483
0.0016038
0.00161159
0.00161823
0.00162366
0.00162783
0.00163083
0.00163256
0.00163302
0.00163215
0.00162996
0.00162636
0.00162144
0.00161517
0.0016075
0.00159847
0.00158807
0.0015763
0.00156316
0.00154862
0.00153271
0.00151543
0.00149676
0.00147673
0.00145524
0.00143239
0.00140813
0.00138251
0.00135536
0.00132682
0.00129688
0.0012654
0.00123245
0.00119804
0.00116216
0.0011247
0.00108574
0.0010452
0.00100309
0.000959402
0.000914093
0.00086713
0.000818412
0.0007681
0.000716052
0.000662278
0.000606886
0.00054966
0.000490754
0.000430033
0.000367568
0.000303428
0.00023751
0.000169852
0.000100693
2.99255e-05
-4.22919e-05
-0.000116199
-0.000191804
-0.000269279
-0.00034819
-0.000428653
-0.000510438
-0.00059353
-0.0006782
-0.000764104
-0.000851297
-0.000939557
-0.00102899
-0.00111934
-0.00121065
-0.00130262
-0.00139539
-0.00148862
-0.00158246
-0.00167659
-0.00177127
-0.00186597
-0.00196093
-0.00205563
-0.00215046
-0.00224492
-0.00233906
-0.00243263
-0.0025257
-0.00261814
-0.00270968
-0.00280065
-0.00289052
-0.00297932
-0.00306674
-0.00315264
-0.00323756
-0.00332066
-0.00340221
-0.00348196
-0.00356019
-0.0036363
-0.00371088
-0.0037833
-0.00385388
-0.00392252
-0.00398889
-0.00405354
-0.00411644
-0.00417728
-0.00423646
-0.00429379
-0.00434936
-0.00440321
-0.00445521
-0.00450565
-0.00455453
-0.00460198
-0.00464781
-0.00469208
-0.00473514
-0.00477672
-0.00481703
-0.00485615
-0.00489364
-0.0049307
-0.00496634
-0.00500089
-0.00503442
-0.00506729
-0.00509914
-0.0051303
-0.0051605
-0.00518988
-0.00521868
-0.00524666
-0.00527407
-0.00530072
-0.00532666
-0.00535239
-0.00537713
-0.00540097
-0.00542433
-0.0054464
-0.00546753
-0.00548777
-0.00550713
-0.00552655
-0.00554556
-0.00556928
-0.00559371
9.20267e-05
0.00017138
0.000265451
0.000360708
0.000448158
0.000528165
0.000601569
0.000669104
0.000731336
0.000788689
0.000841538
0.000890085
0.000934622
0.000975551
0.00101299
0.00104709
0.00107813
0.00110623
0.00113164
0.00115455
0.00117509
0.00119342
0.00120966
0.00122401
0.00123676
0.00124799
0.00125789
0.00126655
0.00127412
0.0012806
0.00128612
0.00129075
0.00129442
0.00129719
0.00129911
0.00130012
0.00130024
0.00129933
0.00129747
0.00129475
0.00129091
0.00128606
0.00128016
0.00127321
0.00126512
0.00125598
0.00124575
0.00123434
0.00122183
0.00120816
0.00119334
0.00117735
0.00116016
0.0011418
0.00112224
0.00110146
0.00107947
0.00105621
0.00103176
0.00100598
0.000979
0.000950663
0.00092109
0.000890176
0.000857928
0.000824334
0.000789358
0.000753028
0.000715315
0.000676204
0.00063565
0.000593677
0.000550211
0.000505249
0.000458791
0.000410702
0.000361156
0.000310044
0.000257333
0.000203068
0.000147244
8.9831e-05
3.07625e-05
-2.98986e-05
-9.20547e-05
-0.000155954
-0.000221369
-0.000288268
-0.000356438
-0.000426087
-0.000497238
-0.000569899
-0.000644202
-0.000719776
-0.000796873
-0.000875308
-0.00095482
-0.00103577
-0.00111785
-0.00120102
-0.00128515
-0.0013705
-0.00145661
-0.00154353
-0.00163106
-0.00171938
-0.00180815
-0.00189742
-0.00198694
-0.00207687
-0.00216676
-0.00225698
-0.00234702
-0.00243709
-0.00252682
-0.00261614
-0.00270488
-0.00279324
-0.00288094
-0.00296786
-0.00305407
-0.00313918
-0.00322344
-0.00330619
-0.00338759
-0.00346792
-0.00354647
-0.00362355
-0.00369885
-0.00377285
-0.00384473
-0.00391502
-0.00398339
-0.00404997
-0.00411464
-0.00417728
-0.00423823
-0.00429737
-0.00435451
-0.00441008
-0.00446406
-0.00451643
-0.00456706
-0.00461603
-0.00466336
-0.00470928
-0.0047538
-0.00479701
-0.0048385
-0.00487907
-0.00491809
-0.00495599
-0.00499266
-0.00502813
-0.0050628
-0.00509612
-0.00512868
-0.00516036
-0.00519133
-0.00522122
-0.00525044
-0.00527906
-0.00530672
-0.00533401
-0.00536057
-0.00538649
-0.00541185
-0.00543647
-0.00546097
-0.00548443
-0.00550735
-0.00553001
-0.0055516
-0.0055727
-0.00559299
-0.00561286
-0.00563372
-0.00565481
-0.00568095
-0.00570807
7.85893e-05
0.000155367
0.000237996
0.000322276
0.000399025
0.000468465
0.000531461
0.000588738
0.000640775
0.000687968
0.000730647
0.000769098
0.000803685
0.000834671
0.000862141
0.000886309
0.000907477
0.000925733
0.000941304
0.000954436
0.000965256
0.000973946
0.000980746
0.000985859
0.000989557
0.000991892
0.00099296
0.000992991
0.000992141
0.000990405
0.000987908
0.000984808
0.000980922
0.000976345
0.000971189
0.00096532
0.00095885
0.000951665
0.000943765
0.000935244
0.000925891
0.0009158
0.000904917
0.00089327
0.000880752
0.000867439
0.000853274
0.00083819
0.000822229
0.000805331
0.000787486
0.000768697
0.000748911
0.00072812
0.000706325
0.000683458
0.000659559
0.000634566
0.000608513
0.000581268
0.000552968
0.000523497
0.000492868
0.000461061
0.00042804
0.000393808
0.000358396
0.000321654
0.000283701
0.000244525
0.000203964
0.000162116
0.000118904
7.439e-05
2.8567e-05
-1.88259e-05
-6.75602e-05
-0.000117662
-0.000169132
-0.00022216
-0.000276576
-0.000332391
-0.000389632
-0.000448349
-0.000508369
-0.000569902
-0.000632848
-0.000697136
-0.000762562
-0.000829302
-0.000897359
-0.000966864
-0.00103775
-0.00110983
-0.00118319
-0.00125778
-0.00133336
-0.00141018
-0.00148806
-0.00156697
-0.00164674
-0.00172754
-0.001809
-0.00189124
-0.001974
-0.00205741
-0.00214124
-0.00222547
-0.00230996
-0.00239476
-0.00247952
-0.00256454
-0.00264944
-0.00273431
-0.00281876
-0.0029028
-0.00298645
-0.0030697
-0.0031521
-0.00323388
-0.0033149
-0.00339487
-0.00347404
-0.00355172
-0.00362836
-0.00370361
-0.00377717
-0.00384953
-0.00392027
-0.00398953
-0.00405673
-0.00412248
-0.00418645
-0.00424882
-0.00430922
-0.00436784
-0.00442473
-0.00447993
-0.00453333
-0.00458514
-0.00463544
-0.00468432
-0.00473147
-0.00477715
-0.00482128
-0.00486413
-0.00490549
-0.00494567
-0.0049843
-0.00502213
-0.00505853
-0.00509394
-0.00512813
-0.00516121
-0.00519353
-0.00522453
-0.00525506
-0.00528477
-0.0053136
-0.00534155
-0.00536869
-0.00539555
-0.00542146
-0.00544707
-0.0054721
-0.00549639
-0.00552029
-0.00554353
-0.00556667
-0.00558886
-0.00561078
-0.00563272
-0.0056538
-0.00567475
-0.00569491
-0.0057154
-0.00573713
-0.00575982
-0.00578761
-0.00581652
6.77981e-05
0.000131135
0.000202689
0.000273226
0.000337234
0.000394812
0.000446512
0.000492804
0.000534038
0.000570499
0.000602631
0.000630699
0.000654933
0.000675533
0.000692678
0.00070656
0.000717389
0.000725345
0.000730718
0.000733727
0.000734478
0.000733183
0.000730216
0.000725705
0.000719866
0.000712857
0.000704897
0.00069623
0.000686789
0.000676677
0.000666041
0.00065499
0.00064344
0.000631483
0.000619209
0.000606522
0.000593427
0.000579948
0.000566081
0.000551811
0.000537027
0.000521809
0.000506056
0.00048982
0.000472969
0.000455569
0.000437569
0.000418919
0.000399589
0.000379551
0.000358774
0.000337241
0.000314911
0.000291763
0.000267763
0.000242879
0.000217139
0.000190453
0.000162813
0.000134183
0.000104631
7.40306e-05
4.23675e-05
9.68102e-06
-2.40827e-05
-5.8941e-05
-9.48638e-05
-0.000131951
-0.000170112
-0.000209438
-0.000249955
-0.000291616
-0.000334449
-0.00037853
-0.000423804
-0.000470384
-0.000518095
-0.000567125
-0.000617407
-0.000669033
-0.000721825
-0.000775922
-0.000831195
-0.000887785
-0.000945658
-0.00100476
-0.00106506
-0.00112643
-0.0011889
-0.00125239
-0.00131709
-0.00138306
-0.00145036
-0.00151864
-0.001588
-0.00165845
-0.00172979
-0.00180217
-0.00187557
-0.00194981
-0.00202477
-0.00210068
-0.00217713
-0.00225429
-0.00233179
-0.00240991
-0.00248837
-0.00256717
-0.0026462
-0.00272556
-0.00280477
-0.00288418
-0.00296335
-0.00304244
-0.00312119
-0.0031995
-0.00327754
-0.00335515
-0.00343205
-0.00350828
-0.00358367
-0.00365801
-0.00373166
-0.00380389
-0.00387517
-0.00394507
-0.00401339
-0.00408067
-0.00414627
-0.00421036
-0.00427277
-0.00433378
-0.00439294
-0.00445065
-0.00450652
-0.00456082
-0.00461341
-0.00466458
-0.00471398
-0.00476168
-0.00480813
-0.00485323
-0.0048967
-0.00493895
-0.00497979
-0.00501937
-0.00505757
-0.00509455
-0.00513021
-0.00516514
-0.00519868
-0.00523138
-0.00526304
-0.00529354
-0.00532352
-0.00535223
-0.00538054
-0.00540787
-0.00543453
-0.00546068
-0.00548589
-0.00551078
-0.00553477
-0.00555858
-0.00558193
-0.00560459
-0.00562707
-0.00564887
-0.00567071
-0.00569177
-0.00571267
-0.00573348
-0.00575394
-0.00577442
-0.00579476
-0.00581564
-0.00583811
-0.0058618
-0.00589077
-0.00592088
5.6851e-05
0.000104695
0.000161754
0.000216778
0.0002668
0.000311666
0.000351262
0.000385789
0.000415457
0.000440497
0.000461332
0.000478141
0.000491214
0.000500741
0.000506842
0.000509754
0.000509564
0.00050652
0.000500982
0.000493086
0.000483097
0.000471299
0.000458034
0.000443419
0.000427728
0.000411101
0.000393739
0.000375871
0.000357544
0.000338843