/*--------------------------------*- C++ -*----------------------------------*\
  =========                 |
  \\      /  F ield         | OpenFOAM: The Open Source CFD Toolbox
   \\    /   O peration     | Website:  https://openfoam.org
    \\  /    A nd           | Version:  8
     \\/     M anipulation  |
\*---------------------------------------------------------------------------*/
FoamFile
{
    version     2.0;
    format      ascii;
    class       volScalarField;
    location    "100";
    object      upod_1;
}
// * * * * * * * * * * * * * * * * * * * * * * * * * * * * * * * * * * * * * //

dimensions      [0 1 -1 0 0 0 0];

internalField   nonuniform List<scalar> 
12225
(
-0.00858787
-0.00664239
-0.00646725
-0.00560393
-0.0052513
-0.00510159
-0.00498831
-0.00480409
-0.00455807
-0.00428827
-0.00401164
-0.00376817
-0.00353598
-0.00340288
-0.00304266
-0.00386732
-0.00308211
-0.00403219
-0.00870256
-0.00746606
-0.00725454
-0.00622884
-0.00542349
-0.00478199
-0.00425767
-0.00379327
-0.0034289
-0.00311466
-0.00278326
-0.00265369
-0.00253934
-0.00252854
-0.00268834
-0.00280434
-0.00384651
-0.00516394
-0.00853869
-0.00772662
-0.00740301
-0.0064607
-0.00573863
-0.00514497
-0.0046484
-0.00419725
-0.00382679
-0.00348247
-0.00315014
-0.00297064
-0.0028335
-0.00277262
-0.00283552
-0.00286578
-0.00354188
-0.00508799
-0.00843189
-0.00790346
-0.00750352
-0.00658064
-0.00590535
-0.00535182
-0.00488674
-0.00446438
-0.00410742
-0.00376921
-0.00346697
-0.0032607
-0.00311033
-0.00302436
-0.00305131
-0.00310054
-0.00347844
-0.00447384
-0.00835065
-0.00797281
-0.00761316
-0.00671516
-0.00606177
-0.0055236
-0.00507211
-0.00466747
-0.00432087
-0.00399943
-0.00372319
-0.00351668
-0.00336937
-0.00328325
-0.00330034
-0.00336643
-0.0036113
-0.00412002
-0.00829187
-0.00798387
-0.00773954
-0.00688799
-0.00625722
-0.00572809
-0.00528232
-0.00488518
-0.00454797
-0.00424147
-0.00398377
-0.00378442
-0.00364756
-0.00357286
-0.0035855
-0.00365104
-0.00380854
-0.00405174
-0.00826014
-0.00796901
-0.00787278
-0.00709739
-0.00650516
-0.00599247
-0.00555447
-0.00516495
-0.00483895
-0.00454488
-0.0043027
-0.00411439
-0.00399296
-0.0039332
-0.00394167
-0.00399697
-0.0040796
-0.00417223
-0.00823286
-0.00797212
-0.00800774
-0.00732924
-0.00679492
-0.00631316
-0.00589403
-0.00551939
-0.0052082
-0.00492722
-0.00470292
-0.00453387
-0.00442818
-0.00437777
-0.00437911
-0.004422
-0.00443313
-0.00444558
-0.00820178
-0.00799613
-0.00813168
-0.00756122
-0.00710359
-0.00666798
-0.00628017
-0.0059273
-0.0056377
-0.00538035
-0.0051775
-0.00503037
-0.0049389
-0.00489378
-0.00488918
-0.00491603
-0.00487628
-0.00484531
-0.00817668
-0.00803334
-0.00824101
-0.0077768
-0.00740367
-0.00702156
-0.00666901
-0.00634351
-0.00608275
-0.00585646
-0.0056783
-0.00555241
-0.00547472
-0.00543563
-0.00543209
-0.00544383
-0.0053734
-0.0053242
-0.00816352
-0.00810059
-0.00831497
-0.00792379
-0.00762583
-0.0072964
-0.0069821
-0.00669088
-0.00645417
-0.00625392
-0.00610027
-0.00599676
-0.00593632
-0.00591134
-0.00591586
-0.00592652
-0.00585127
-0.00579137
-0.00818249
-0.00800113
-0.00809853
-0.00778577
-0.00758908
-0.00735286
-0.00713172
-0.00693811
-0.00678561
-0.00666427
-0.00658399
-0.00654505
-0.0065416
-0.00656996
-0.00661435
-0.00666862
-0.00663482
-0.00665189
-0.0081453
-0.00791379
-0.00794534
-0.00764838
-0.00757282
-0.00747156
-0.00739042
-0.00733745
-0.00731846
-0.00732111
-0.00734961
-0.00740677
-0.00748914
-0.00759071
-0.00769379
-0.00781348
-0.00781249
-0.00797804
-0.0080423
-0.00802467
-0.00819221
-0.00794867
-0.00794865
-0.00793032
-0.00794414
-0.00799042
-0.0080771
-0.00818204
-0.00830292
-0.00844262
-0.00859177
-0.0087449
-0.00889148
-0.00904574
-0.00903512
-0.00923699
-0.00792075
-0.00800967
-0.00843526
-0.00841099
-0.00854625
-0.0086267
-0.00872574
-0.00885401
-0.00901592
-0.00918935
-0.0093723
-0.00956423
-0.00975285
-0.00993316
-0.0100944
-0.0102519
-0.0102173
-0.0104255
-0.00783024
-0.00787191
-0.00845407
-0.00868475
-0.00903009
-0.0092773
-0.00949628
-0.00971854
-0.00995019
-0.0101788
-0.0104026
-0.0106207
-0.0108228
-0.0110034
-0.0111558
-0.0112973
-0.0112259
-0.0113946
-0.00779098
-0.00769521
-0.00828253
-0.00867456
-0.00919388
-0.0095989
-0.00994122
-0.0102622
-0.01057
-0.0108593
-0.0111249
-0.0113589
-0.0115614
-0.0117329
-0.0118673
-0.0119937
-0.0118884
-0.0120511
-0.00780111
-0.00752662
-0.00805031
-0.0084987
-0.00910932
-0.00961292
-0.0100408
-0.0104367
-0.0108012
-0.0111249
-0.0114088
-0.0116522
-0.0118511
-0.0120073
-0.0121239
-0.0122323
-0.0120922
-0.0122541
-0.00781241
-0.00744536
-0.00790274
-0.00832623
-0.00893981
-0.00946321
-0.00991013
-0.0103077
-0.0106576
-0.0109571
-0.0112083
-0.0114146
-0.0115749
-0.011694
-0.0117755
-0.0118508
-0.0116828
-0.0118356
-0.00785316
-0.00756384
-0.00794545
-0.00819021
-0.00863994
-0.00901445
-0.00933438
-0.00961743
-0.00986832
-0.0100826
-0.0102591
-0.0104
-0.0105082
-0.0105867
-0.0106371
-0.0106879
-0.0105252
-0.0106378
-0.0078727
-0.00767943
-0.0080649
-0.00821126
-0.00854116
-0.00879115
-0.00899677
-0.00917734
-0.00933725
-0.00947151
-0.00957798
-0.00965623
-0.00970822
-0.00973801
-0.00974418
-0.0097543
-0.00957718
-0.0096292
-0.00790051
-0.00778251
-0.00818447
-0.00824888
-0.00846361
-0.00858932
-0.00868206
-0.00875607
-0.00881885
-0.00886093
-0.00888134
-0.00888121
-0.00886207
-0.00882766
-0.00877623
-0.00873098
-0.00852499
-0.00851982
-0.00794352
-0.0078785
-0.00827255
-0.00822328
-0.00829541
-0.00827923
-0.00824368
-0.0081969
-0.00814752
-0.0080831
-0.00800453
-0.0079147
-0.00781707
-0.00771021
-0.00759726
-0.00748952
-0.00725156
-0.00717188
-0.00800344
-0.00795334
-0.00828585
-0.00807885
-0.00798516
-0.00782102
-0.00765272
-0.00748405
-0.00732363
-0.00715755
-0.00698716
-0.0068174
-0.00664902
-0.00648105
-0.00631549
-0.00615871
-0.00590165
-0.00577812
-0.00807558
-0.00799557
-0.00819991
-0.00781067
-0.00755551
-0.00726469
-0.00698622
-0.00672408
-0.00647777
-0.00623384
-0.00599655
-0.00576659
-0.00554305
-0.00532597
-0.00511492
-0.00491611
-0.0046428
-0.00446231
-0.0081509
-0.00800213
-0.00802582
-0.00748045
-0.00710504
-0.00673365
-0.00638774
-0.00607216
-0.00576752
-0.00546923
-0.00518125
-0.00490407
-0.00463539
-0.00437614
-0.00412071
-0.00387949
-0.00358948
-0.00333787
-0.0082323
-0.00797043
-0.0078194
-0.00717265
-0.00672233
-0.00630417
-0.00592103
-0.00556181
-0.00521617
-0.00488211
-0.00454996
-0.00423574
-0.00393228
-0.00363133
-0.00333659
-0.00306404
-0.002746
-0.00245178
-0.00833005
-0.0078534
-0.00763857
-0.00694686
-0.00643224
-0.00595107
-0.00551332
-0.0050798
-0.00469679
-0.00432265
-0.00392571
-0.00358386
-0.00325216
-0.00289757
-0.00257906
-0.00228609
-0.00194102
-0.00159528
-0.00849961
-0.00778737
-0.00754518
-0.00673293
-0.00608749
-0.00547606
-0.00492976
-0.00436079
-0.00392251
-0.00348927
-0.0029842
-0.00262845
-0.0022765
-0.00184271
-0.00153437
-0.00126368
-0.000876256
-0.000487278
-0.00836418
-0.00732256
-0.00683568
-0.00592096
-0.00538523
-0.00493057
-0.00453234
-0.00412792
-0.0037861
-0.00345045
-0.00311541
-0.00284242
-0.00258248
-0.00232339
-0.00210804
-0.00191887
-0.00166836
-0.00131189
0.000156395
0.000689911
0.00114231
0.00176937
0.00246997
0.00308638
0.00361814
0.0041034
0.00450952
0.00484747
0.00508177
0.00522048
0.00530089
0.00532479
0.00530211
0.00523527
0.00511324
0.00495853
0.00476005
0.00451528
0.00421445
0.00386022
0.00344144
0.00299383
0.00248619
0.00193809
0.00134784
0.000722684
6.01642e-05
-0.000619729
-0.00132012
-0.00203152
-0.00275736
-0.00347575
-0.00419734
-0.00491164
-0.00562353
-0.0063179
-0.00700961
-0.00768821
-0.00835887
-0.00901142
-0.00966027
-0.0102932
-0.0109177
-0.0115257
-0.0121314
-0.0127207
-0.0133021
-0.0138714
-0.0144385
-0.0149897
-0.0155385
-0.016076
-0.0166092
-0.0171258
-0.0176379
-0.0181379
-0.0186287
-0.0191054
-0.0195794
-0.0200383
-0.0204878
-0.0209235
-0.0213538
-0.0217676
-0.0221747
-0.0225686
-0.0229532
-0.0233212
-0.0236812
-0.0240251
-0.0243575
-0.0246731
-0.0249781
-0.0252696
-0.0255467
-0.0258102
-0.0260545
-0.0262864
-0.0265021
-0.0266995
-0.0268837
-0.0270468
-0.027197
-0.027325
-0.0274403
-0.0275361
-0.0276123
-0.027671
-0.0277079
-0.0277342
-0.0277433
-0.027739
-0.0277169
-0.0276755
-0.0276231
-0.0275452
-0.02746
-0.02735
-0.0272302
-0.0270901
-0.0269428
-0.0267722
-0.0265972
-0.0264044
-0.0261925
-0.0259793
-0.0257485
-0.025504
-0.0252557
-0.0249914
-0.0247218
-0.0244447
-0.0241658
-0.0238683
-0.023576
-0.0232757
-0.022967
-0.0226606
-0.0223457
-0.0220365
-0.0217275
-0.0214129
-0.0211012
-0.0207859
-0.0204753
-0.0201601
-0.0198504
-0.0195605
-0.0192643
-0.0189788
-0.018677
-0.0184082
-0.0181193
-0.0178567
-0.0175832
-0.0173135
-0.0170499
-0.0168075
-0.0165608
-0.0163416
-0.0161057
-0.0158925
-0.0156667
-0.0154573
-0.0152683
-0.0150755
-0.0148844
-0.0146997
-0.014542
-0.0143598
-0.0141863
-0.0140317
-0.0138974
-0.0137276
-0.0135892
-0.0134328
-0.0132802
-0.013174
-0.013015
-0.0128898
-0.0127342
-0.0126174
-0.0124688
-0.0123408
-0.0122105
-0.0120505
-0.011929
-0.0117992
-0.0116434
-0.0114635
-0.0113333
-0.0111024
-0.010901
-0.0106584
-0.0103482
-0.0100347
-0.00960092
-0.00878601
0.000437874
0.00106124
0.00164523
0.00223922
0.00276786
0.00319921
0.00354812
0.00381615
0.00400682
0.00412674
0.00418026
0.00417137
0.00410091
0.00396885
0.00377665
0.00352403
0.00321822
0.00285472
0.00243316
0.00196318
0.00144772
0.000891327
0.00029922
-0.000326201
-0.000977519
-0.00164838
-0.00232936
-0.00301874
-0.00370849
-0.00439732
-0.00507797
-0.00575042
-0.0064113
-0.00706163
-0.00769594
-0.00832026
-0.0089314
-0.00953223
-0.0101235
-0.0107041
-0.0112798
-0.0118445
-0.0124026
-0.0129521
-0.0134968
-0.0140299
-0.0145568
-0.0150782
-0.0155889
-0.0160956
-0.0165951
-0.0170903
-0.0175786
-0.0180603
-0.0185332
-0.0189979
-0.0194537
-0.0199043
-0.0203457
-0.0207737
-0.0212014
-0.0216147
-0.0220207
-0.02241
-0.0227942
-0.0231664
-0.023528
-0.0238802
-0.024217
-0.0245463
-0.0248647
-0.025168
-0.0254621
-0.0257376
-0.0259999
-0.0262533
-0.0264924
-0.0267195
-0.0269268
-0.0271283
-0.0273028
-0.0274663
-0.0276194
-0.0277507
-0.0278737
-0.0279739
-0.0280647
-0.0281355
-0.0281822
-0.0282173
-0.0282305
-0.0282266
-0.02821
-0.0281959
-0.0281487
-0.0280819
-0.0280254
-0.0279263
-0.0278357
-0.0277078
-0.0275863
-0.0274299
-0.0272838
-0.0270968
-0.0269296
-0.0267368
-0.0265127
-0.0263
-0.0260763
-0.0258107
-0.0255742
-0.0253143
-0.0250312
-0.0247337
-0.0244681
-0.0241656
-0.0238813
-0.0235737
-0.023255
-0.0229802
-0.0226753
-0.0223813
-0.0220768
-0.021748
-0.0214343
-0.0211043
-0.0208492
-0.0205547
-0.0202387
-0.0199358
-0.0196361
-0.0193944
-0.0190918
-0.01886
-0.0185623
-0.0183508
-0.0181197
-0.0178858
-0.0176524
-0.0174263
-0.0171651
-0.0169223
-0.016685
-0.0165468
-0.016334
-0.0160988
-0.0159784
-0.0158255
-0.0156427
-0.0154159
-0.0153369
-0.0152097
-0.0150236
-0.0148298
-0.0147626
-0.0145775
-0.0145231
-0.0143627
-0.0141776
-0.0141355
-0.0139721
-0.0139089
-0.0137585
-0.0136886
-0.0135282
-0.0134731
-0.0133941
-0.0132169
-0.0131267
-0.0130593
-0.0128971
-0.0127052
-0.0126879
-0.0124735
-0.0124427
-0.0123228
-0.012014
-0.0119583
-0.0116985
-0.0113094
0.00048249
0.00100842
0.00150438
0.00193164
0.00226036
0.00249523
0.00265161
0.00273821
0.00276117
0.00272224
0.00262691
0.00248112
0.00228394
0.00203301
0.00172951
0.00137606
0.000973389
0.00052686
4.58157e-05
-0.000461334
-0.000996079
-0.00155189
-0.00211725
-0.00269493
-0.0032799
-0.00386615
-0.00444771
-0.005028
-0.00559979
-0.00616781
-0.00673038
-0.0072865
-0.0078319
-0.00837764
-0.00891496
-0.00945151
-0.00998149
-0.0105088
-0.0110357
-0.0115606
-0.0120857
-0.0125992
-0.0131121
-0.0136232
-0.014133
-0.0146315
-0.0151271
-0.0156243
-0.0161096
-0.0165946
-0.0170738
-0.017544
-0.0180063
-0.0184624
-0.0189044
-0.0193434
-0.0197777
-0.0202089
-0.020632
-0.0210387
-0.0214442
-0.0218355
-0.0222231
-0.0225945
-0.0229631
-0.0233216
-0.0236606
-0.0239961
-0.0243151
-0.0246288
-0.0249237
-0.0252077
-0.025484
-0.0257528
-0.0260075
-0.0262418
-0.026469
-0.0266766
-0.0268756
-0.0270648
-0.0272261
-0.0273815
-0.0275158
-0.0276349
-0.0277441
-0.0278433
-0.0279167
-0.0279772
-0.0280284
-0.028053
-0.0280683
-0.0280582
-0.0280372
-0.0280161
-0.0279639
-0.0278965
-0.0278343
-0.0277315
-0.0276281
-0.0275033
-0.0273848
-0.0272383
-0.0270881
-0.0269016
-0.0267241
-0.0265306
-0.0263247
-0.0260974
-0.0258764
-0.025618
-0.0253741
-0.0251173
-0.0248519
-0.0245604
-0.0242847
-0.0239989
-0.0237078
-0.0234168
-0.0231209
-0.022837
-0.0225124
-0.0222124
-0.0219088
-0.0216103
-0.0213325
-0.0210085
-0.0207409
-0.02044
-0.0201525
-0.0198602
-0.0195733
-0.0193219
-0.0190459
-0.018808
-0.0185275
-0.0182976
-0.0180565
-0.0178226
-0.0176013
-0.0173835
-0.0171679
-0.0169367
-0.0167266
-0.0165782
-0.0163924
-0.0161651
-0.0160185
-0.0158565
-0.0157188
-0.0155091
-0.0153895
-0.0152748
-0.0151353
-0.0149546
-0.0148623
-0.0146948
-0.0146254
-0.0144967
-0.0143501
-0.0142627
-0.0141235
-0.0140353
-0.0139352
-0.0138323
-0.0136967
-0.0136135
-0.0135186
-0.0134068
-0.0132592
-0.0131902
-0.0130682
-0.0129368
-0.0128643
-0.0126934
-0.0126587
-0.0125377
-0.0122399
-0.0121854
-0.0119235
-0.0116651
0.000394513
0.000765315
0.00109959
0.00136229
0.00154049
0.00163982
0.00167403
0.00164929
0.00157019
0.00143999
0.00126292
0.00104197
0.00077672
0.000469273
0.000124595
-0.000255619
-0.000669633
-0.00110932
-0.00156866
-0.00204354
-0.00252947
-0.00302057
-0.00351091
-0.00400193
-0.00449259
-0.00498225
-0.00547029
-0.00595659
-0.00643853
-0.00692211
-0.00740597
-0.00788839
-0.00837029
-0.00885596
-0.00934331
-0.00983557
-0.0103286
-0.0108202
-0.0113108
-0.0118019
-0.0122949
-0.0127837
-0.013274
-0.0137594
-0.0142415
-0.0147207
-0.015195
-0.0156665
-0.0161304
-0.0165913
-0.0170472
-0.0174972
-0.0179403
-0.0183789
-0.0188099
-0.0192354
-0.0196532
-0.0200626
-0.0204654
-0.0208592
-0.0212467
-0.0216236
-0.0219936
-0.0223528
-0.0227033
-0.0230452
-0.0233735
-0.0236956
-0.0240046
-0.0243054
-0.0245908
-0.0248669
-0.025129
-0.0253814
-0.0256212
-0.0258479
-0.0260649
-0.0262638
-0.0264524
-0.026627
-0.0267856
-0.0269329
-0.0270635
-0.0271813
-0.0272814
-0.027371
-0.0274402
-0.0274963
-0.0275404
-0.0275601
-0.0275721
-0.0275646
-0.0275463
-0.027515
-0.0274655
-0.0273993
-0.0273252
-0.0272319
-0.0271243
-0.0270033
-0.0268716
-0.0267247
-0.0265688
-0.0263962
-0.0262147
-0.0260174
-0.0258147
-0.0255921
-0.0253701
-0.0251276
-0.0248825
-0.024627
-0.0243677
-0.0240942
-0.0238204
-0.0235428
-0.0232536
-0.0229688
-0.0226764
-0.0223866
-0.0220835
-0.021789
-0.021492
-0.0212011
-0.0209217
-0.0206261
-0.0203459
-0.0200567
-0.0197838
-0.0195051
-0.0192358
-0.0189716
-0.0187107
-0.0184624
-0.0182095
-0.0179718
-0.0177342
-0.0175011
-0.017282
-0.0170699
-0.0168737
-0.0166692
-0.0164795
-0.0162994
-0.0161243
-0.0159412
-0.0157755
-0.0156088
-0.0154701
-0.0153085
-0.0151615
-0.015028
-0.0149053
-0.0147606
-0.0146441
-0.0145106
-0.0144023
-0.014288
-0.0141757
-0.0140737
-0.0139558
-0.013841
-0.0137526
-0.013642
-0.0135345
-0.0134334
-0.0133186
-0.013242
-0.0130939
-0.0129992
-0.0129046
-0.0128137
-0.0127035
-0.0125723
-0.0124968
-0.0123661
-0.0121664
-0.0120572
-0.011861
-0.0116781
0.000265119
0.000488672
0.000680135
0.000809866
0.000875029
0.000878251
0.000828663
0.00073106
0.00058851
0.000405367
0.000185334
-6.91117e-05
-0.00035617
-0.000672105
-0.00101409
-0.00137933
-0.00176218
-0.00215896
-0.00256588
-0.00297867
-0.00339556
-0.00381409
-0.00423285
-0.00465255
-0.00507203
-0.00549262
-0.00591453
-0.00633768
-0.00676416
-0.00719446
-0.00762968
-0.00806821
-0.00851451
-0.00896606
-0.00942101
-0.00988054
-0.010344
-0.0108096
-0.011277
-0.0117457
-0.0122149
-0.012683
-0.0131508
-0.0136158
-0.0140788
-0.0145376
-0.0149927
-0.0154447
-0.0158913
-0.0163332
-0.0167699
-0.0172016
-0.017628
-0.0180489
-0.0184646
-0.0188733
-0.0192752
-0.0196689
-0.0200556
-0.0204347
-0.0208057
-0.0211693
-0.0215244
-0.0218709
-0.0222079
-0.0225356
-0.0228543
-0.0231627
-0.0234612
-0.0237489
-0.0240242
-0.0242908
-0.024544
-0.0247853
-0.0250145
-0.0252341
-0.0254395
-0.025632
-0.0258123
-0.0259788
-0.0261339
-0.0262729
-0.026399
-0.0265103
-0.0266086
-0.0266913
-0.0267589
-0.0268118
-0.0268491
-0.0268699
-0.0268788
-0.0268714
-0.0268534
-0.0268176
-0.0267676
-0.0267044
-0.0266271
-0.0265373
-0.0264305
-0.0263146
-0.0261824
-0.0260374
-0.0258803
-0.0257132
-0.0255331
-0.0253419
-0.0251389
-0.024925
-0.0247033
-0.0244727
-0.0242309
-0.0239822
-0.0237261
-0.0234652
-0.0232006
-0.0229258
-0.0226468
-0.0223684
-0.0220826
-0.0217969
-0.02151
-0.0212236
-0.0209386
-0.0206553
-0.0203721
-0.0200959
-0.0198153
-0.0195432
-0.0192723
-0.0190083
-0.0187476
-0.0184908
-0.0182376
-0.0179951
-0.0177526
-0.0175201
-0.0172927
-0.0170714
-0.0168564
-0.0166527
-0.0164597
-0.0162732
-0.0160923
-0.0159105
-0.0157379
-0.0155764
-0.015414
-0.0152564
-0.0151095
-0.0149669
-0.0148246
-0.0146843
-0.0145614
-0.0144381
-0.0143198
-0.0142006
-0.0140832
-0.0139718
-0.0138658
-0.0137653
-0.0136575
-0.0135512
-0.0134512
-0.0133519
-0.0132521
-0.0131548
-0.0130472
-0.0129614
-0.0128532
-0.0127502
-0.0126556
-0.0125599
-0.012454
-0.0123335
-0.0122199
-0.0120941
-0.0119604
-0.0118288
-0.0116853
-0.0115556
0.000148809
0.000257667
0.000341033
0.000370459
0.000351105
0.000284098
0.000174559
2.6894e-05
-0.000154917
-0.000366459
-0.0006045
-0.000866617
-0.00115005
-0.00145111
-0.00176784
-0.00209705
-0.00243468
-0.00277904
-0.00312904
-0.00348288
-0.00383966
-0.00419849
-0.00455971
-0.00492371
-0.00529121
-0.00566451
-0.00604092
-0.00642295
-0.00681213
-0.00720787
-0.00761139
-0.00802114
-0.00843995
-0.008865
-0.00929376
-0.00972885
-0.0101695
-0.0106129
-0.0110594
-0.011507
-0.011955
-0.0124035
-0.0128514
-0.0132964
-0.0137407
-0.0141812
-0.0146186
-0.015052
-0.0154807
-0.0159053
-0.0163246
-0.0167391
-0.0171487
-0.0175526
-0.0179511
-0.0183432
-0.0187286
-0.0191067
-0.0194786
-0.0198434
-0.0202002
-0.0205496
-0.0208911
-0.0212238
-0.0215482
-0.0218632
-0.0221708
-0.0224669
-0.0227535
-0.0230295
-0.0232952
-0.0235503
-0.0237954
-0.0240274
-0.0242478
-0.0244574
-0.0246534
-0.024839
-0.0250131
-0.025173
-0.0253211
-0.0254557
-0.0255776
-0.0256826
-0.0257765
-0.0258556
-0.0259209
-0.0259699
-0.0260044
-0.0260257
-0.0260342
-0.0260261
-0.0260062
-0.0259693
-0.0259226
-0.025863
-0.0257855
-0.0256985
-0.0255958
-0.0254818
-0.025354
-0.0252139
-0.0250636
-0.0249002
-0.0247218
-0.0245385
-0.0243388
-0.0241303
-0.0239144
-0.0236906
-0.0234557
-0.0232184
-0.0229708
-0.0227192
-0.0224626
-0.0221974
-0.0219246
-0.0216533
-0.0213793
-0.0211055
-0.0208275
-0.0205522
-0.0202756
-0.0200037
-0.0197283
-0.0194648
-0.019192
-0.0189313
-0.0186681
-0.0184183
-0.0181661
-0.0179216
-0.0176732
-0.0174403
-0.0172075
-0.0169834
-0.0167669
-0.0165568
-0.0163496
-0.0161582
-0.0159719
-0.015794
-0.0156206
-0.0154494
-0.0152842
-0.015127
-0.0149741
-0.0148252
-0.0146845
-0.0145446
-0.014411
-0.0142784
-0.0141635
-0.0140429
-0.0139316
-0.0138179
-0.0137043
-0.013596
-0.0134939
-0.0133939
-0.0132961
-0.0131963
-0.0130988
-0.0130025
-0.0129081
-0.0128138
-0.012716
-0.0126241
-0.0125378
-0.0124419
-0.0123445
-0.0122445
-0.0121422
-0.0120305
-0.0119059
-0.011792
-0.0116749
-0.0115518
-0.0114295
-0.0113405
5.86545e-05
9.05932e-05
9.57562e-05
5.14657e-05
-2.74673e-05
-0.00014378
-0.000292984
-0.000470531
-0.000672219
-0.000893583
-0.00113172
-0.00138413
-0.00164886
-0.00192352
-0.00220618
-0.00249438
-0.00278712
-0.00308523
-0.00338705
-0.00369155
-0.00400001
-0.00431325
-0.00463197
-0.00495565
-0.0052855
-0.00562497
-0.00596931
-0.00632246
-0.00668429
-0.00705664
-0.00743701
-0.00782534
-0.0082219
-0.00862619
-0.00903601
-0.00945163
-0.00987142
-0.0102945
-0.0107217
-0.0111488
-0.0115767
-0.012005
-0.0124329
-0.0128579
-0.0132824
-0.0137041
-0.0141221
-0.0145373
-0.0149481
-0.0153549
-0.0157567
-0.0161537
-0.0165456
-0.0169322
-0.017313
-0.0176882
-0.0180566
-0.0184188
-0.0187749
-0.0191247
-0.0194658
-0.0198005
-0.020128
-0.0204468
-0.0207579
-0.0210599
-0.0213536
-0.021637
-0.0219123
-0.0221765
-0.0224324
-0.0226773
-0.0229127
-0.0231352
-0.0233462
-0.0235475
-0.0237361
-0.0239142
-0.0240805
-0.0242318
-0.0243745
-0.0245045
-0.0246222
-0.0247249
-0.0248136
-0.0248884
-0.024951
-0.0249964
-0.0250311
-0.0250504
-0.0250564
-0.0250483
-0.0250298
-0.024995
-0.0249517
-0.0248944
-0.024819
-0.0247359
-0.0246368
-0.0245256
-0.0244027
-0.0242674
-0.0241221
-0.0239661
-0.0237936
-0.0236164
-0.0234253
-0.0232265
-0.0230172
-0.022802
-0.0225761
-0.0223474
-0.0221076
-0.0218655
-0.0216173
-0.0213662
-0.0211047
-0.0208434
-0.0205812
-0.0203163
-0.0200521
-0.0197902
-0.0195243
-0.0192632
-0.0189989
-0.0187477
-0.0184885
-0.018238
-0.0179896
-0.0177507
-0.0175079
-0.0172769
-0.0170391
-0.0168161
-0.0165973
-0.0163793
-0.0161736
-0.0159762
-0.015782
-0.0156031
-0.0154244
-0.015254
-0.0150891
-0.014927
-0.0147721
-0.0146219
-0.0144793
-0.0143382
-0.0142032
-0.0140733
-0.013949
-0.0138262
-0.0137173
-0.0135955
-0.0134947
-0.0133876
-0.0132787
-0.0131765
-0.0130802
-0.0129848
-0.0128947
-0.0127992
-0.0127063
-0.0126145
-0.0125238
-0.0124344
-0.0123403
-0.0122504
-0.0121727
-0.0120855
-0.0119892
-0.0118949
-0.0117939
-0.0116888
-0.0115747
-0.0114686
-0.0113589
-0.0112435
-0.0111344
-0.0110677
-7.98984e-06
-1.60644e-05
-6.34245e-05
-0.000157528
-0.000277401
-0.000425041
-0.000596
-0.000785835
-0.000990879
-0.00120812
-0.00143411
-0.001667
-0.00190725
-0.00215182
-0.00239948
-0.00264969
-0.00290299
-0.00316163
-0.00342448
-0.00369171
-0.00396445
-0.00424317
-0.00452929
-0.00482563
-0.00513047
-0.00544603
-0.00576923
-0.00610306
-0.00644741
-0.00680291
-0.00716505
-0.00753573
-0.0079144
-0.0083003
-0.0086907
-0.00908714
-0.00948744
-0.00989152
-0.0102992
-0.0107066
-0.0111146
-0.0115221
-0.0119294
-0.0123349
-0.0127401
-0.0131418
-0.0135402
-0.0139362
-0.0143277
-0.0147151
-0.0150977
-0.0154755
-0.0158489
-0.0162169
-0.0165793
-0.0169361
-0.0172864
-0.0176322
-0.0179709
-0.0183035
-0.0186278
-0.0189477
-0.0192592
-0.0195624
-0.0198596
-0.0201486
-0.0204285
-0.0206989
-0.0209616
-0.021214
-0.0214576
-0.0216909
-0.0219134
-0.0221254
-0.0223269
-0.0225198
-0.0226994
-0.0228686
-0.0230266
-0.0231704
-0.0233051
-0.0234264
-0.0235375
-0.0236364
-0.0237211
-0.0237945
-0.023856
-0.0239007
-0.0239332
-0.0239506
-0.0239563
-0.0239488
-0.0239335
-0.0239021
-0.0238595
-0.0238012
-0.0237281
-0.0236485
-0.0235553
-0.0234513
-0.0233327
-0.0232048
-0.0230639
-0.0229147
-0.0227517
-0.0225817
-0.0223989
-0.0222098
-0.022009
-0.0218062
-0.0215914
-0.0213736
-0.0211434
-0.0209138
-0.0206764
-0.0204358
-0.0201891
-0.0199414
-0.019692
-0.0194378
-0.01919
-0.0189399
-0.0186913
-0.0184405
-0.0181873
-0.0179483
-0.0177051
-0.0174669
-0.0172295
-0.0170025
-0.0167722
-0.0165552
-0.0163369
-0.016126
-0.015921
-0.0157137
-0.0155185
-0.0153343
-0.0151527
-0.014982
-0.0148161
-0.0146565
-0.0145024
-0.0143498
-0.0142051
-0.0140661
-0.0139354
-0.0138064
-0.0136792
-0.0135606
-0.0134429
-0.0133304
-0.013223
-0.0131075
-0.0130124
-0.0129122
-0.0128132
-0.0127155
-0.0126266
-0.012536
-0.012451
-0.0123637
-0.0122758
-0.0121922
-0.0121066
-0.0120236
-0.0119382
-0.0118513
-0.0117752
-0.0116903
-0.0116001
-0.0115163
-0.0114197
-0.01132
-0.0112181
-0.0111137
-0.0110165
-0.0109089
-0.0108159
-0.0107602
-5.13138e-05
-8.32819e-05
-0.00015876
-0.000278891
-0.00041841
-0.000579464
-0.000759046
-0.000950005
-0.00114808
-0.00135153
-0.00155808
-0.001769
-0.00198332
-0.00219686
-0.00241252
-0.00263206
-0.00285459
-0.00308252
-0.00331504
-0.00355361
-0.00379987
-0.00405587
-0.00432361
-0.00460296
-0.00489149
-0.00519097
-0.00550045
-0.0058204
-0.00614931
-0.00648851
-0.00683573
-0.00718994
-0.00755203
-0.00792081
-0.00829353
-0.00867087
-0.0090512
-0.00943681
-0.00982388
-0.0102093
-0.0105978
-0.0109855
-0.0113726
-0.0117576
-0.0121418
-0.0125221
-0.0128989
-0.0132734
-0.0136432
-0.0140094
-0.014371
-0.0147279
-0.0150805
-0.015428
-0.0157699
-0.0161072
-0.0164383
-0.0167651
-0.0170843
-0.0173992
-0.0177061
-0.0180083
-0.018302
-0.0185894
-0.0188696
-0.0191421
-0.0194072
-0.0196635
-0.019911
-0.0201493
-0.0203788
-0.0205982
-0.0208086
-0.0210093
-0.0211995
-0.021382
-0.0215518
-0.021711
-0.0218601
-0.0219976
-0.0221234
-0.0222378
-0.0223424
-0.0224352
-0.0225137
-0.0225844
-0.0226421
-0.0226868
-0.0227152
-0.0227332
-0.0227393
-0.0227318
-0.0227152
-0.0226826
-0.0226421
-0.0225902
-0.0225216
-0.0224467
-0.0223589
-0.0222583
-0.0221442
-0.0220251
-0.0218924
-0.0217501
-0.0215957
-0.0214358
-0.021265
-0.0210867
-0.0208976
-0.0207042
-0.0204988
-0.020293
-0.020078
-0.019862
-0.0196396
-0.0194119
-0.019178
-0.0189458
-0.018711
-0.018474
-0.0182401
-0.0180032
-0.0177732
-0.0175369
-0.0173011
-0.0170759
-0.0168465
-0.0166224
-0.0163983
-0.0161885
-0.0159735
-0.0157683
-0.0155659
-0.0153702
-0.0151787
-0.0149888
-0.0148091
-0.0146362
-0.0144645
-0.0143032
-0.0141509
-0.0140057
-0.0138633
-0.0137244
-0.0135886
-0.0134603
-0.0133381
-0.0132229
-0.0131031
-0.0129971
-0.012888
-0.0127849
-0.0126835
-0.012583
-0.0124918
-0.0123947
-0.0123054
-0.0122186
-0.0121376
-0.0120519
-0.0119701
-0.0118932
-0.0118104
-0.0117359
-0.0116591
-0.0115814
-0.0115046
-0.0114229
-0.0113519
-0.011268
-0.0111839
-0.011107
-0.011018
-0.0109299
-0.0108331
-0.0107339
-0.0106518
-0.0105589
-0.0104794
-0.0104326
-6.78837e-05
-0.000116095
-0.000199935
-0.000329752
-0.000475682
-0.000639484
-0.000815987
-0.000997242
-0.00118015
-0.00136401
-0.00154877
-0.00173476
-0.00192023
-0.00210546
-0.00229487
-0.0024896
-0.00268835
-0.00289514
-0.00311018
-0.00333348
-0.00356753
-0.00381323
-0.00406998
-0.0043374
-0.00461356
-0.00490102
-0.00520069
-0.00550968
-0.0058264
-0.00615239
-0.00648571
-0.00682284
-0.00716858
-0.00752028
-0.00787452
-0.00823381
-0.00859445
-0.00895815
-0.00932374
-0.00968771
-0.0100541
-0.0104194
-0.0107837
-0.0111454
-0.011506
-0.0118627
-0.0122159
-0.0125666
-0.0129128
-0.0132554
-0.0135938
-0.0139273
-0.0142567
-0.0145814
-0.0149009
-0.0152163
-0.015526
-0.0158307
-0.0161292
-0.0164241
-0.0167111
-0.0169927
-0.0172677
-0.0175361
-0.017798
-0.0180526
-0.0182984
-0.0185386
-0.0187694
-0.0189905
-0.0192053
-0.0194106
-0.0196078
-0.0197944
-0.0199701
-0.0201409
-0.0203004
-0.0204488
-0.0205858
-0.020716
-0.0208347
-0.020942
-0.0210383
-0.0211247
-0.0211969
-0.0212604
-0.0213131
-0.0213541
-0.0213801
-0.0213962
-0.0214005
-0.0213946
-0.0213777
-0.0213476
-0.0213077
-0.0212584
-0.0211943
-0.0211225
-0.0210399
-0.0209473
-0.0208418
-0.0207302
-0.0206061
-0.0204746
-0.020331
-0.0201813
-0.0200218
-0.0198546
-0.0196785
-0.0194973
-0.0193055
-0.0191131
-0.0189139
-0.0187131
-0.0185045
-0.0182908
-0.0180759
-0.0178616
-0.0176402
-0.0174202
-0.017202
-0.0169813
-0.0167683
-0.0165482
-0.0163351
-0.0161233
-0.0159077
-0.0157026
-0.0154999
-0.0153046
-0.0151038
-0.014914
-0.0147278
-0.014551
-0.014374
-0.0142025
-0.0140372
-0.0138784
-0.0137229
-0.0135744
-0.0134337
-0.0133025
-0.0131712
-0.0130457
-0.0129224
-0.0128072
-0.0126933
-0.0125872
-0.0124779
-0.0123829
-0.0122849
-0.012194
-0.0121026
-0.0120119
-0.0119293
-0.0118396
-0.0117624
-0.0116877
-0.0116124
-0.0115349
-0.0114564
-0.0113888
-0.0113138
-0.0112465
-0.0111792
-0.0111067
-0.0110368
-0.0109617
-0.0108954
-0.0108156
-0.0107386
-0.010671
-0.0105909
-0.0105147
-0.0104226
-0.0103365
-0.0102628
-0.0101837
-0.0101127
-0.0100735
-8.16094e-05
-0.000104164
-0.000195051
-0.000333682
-0.0004836
-0.000639793
-0.000800702
-0.000963022
-0.00112539
-0.00128895
-0.00145096
-0.00161253
-0.00177547
-0.00194162
-0.00211314
-0.00229174
-0.00247835
-0.00267485
-0.00287985
-0.00309431
-0.00332152
-0.00356178
-0.00381132
-0.00407177
-0.00434256
-0.00462365
-0.0049131
-0.00520764
-0.00551135
-0.00582347
-0.00614157
-0.00646356
-0.00679204
-0.00712462
-0.00745876
-0.00779624
-0.00813623
-0.00847724
-0.00881834
-0.00915883
-0.00950033
-0.00983972
-0.0101783
-0.0105137
-0.010848
-0.0111786
-0.0115055
-0.011829
-0.012149
-0.0124652
-0.0127774
-0.0130853
-0.013389
-0.0136883
-0.0139832
-0.0142738
-0.0145586
-0.0148391
-0.0151147
-0.0153856
-0.0156494
-0.0159084
-0.0161622
-0.0164092
-0.01665
-0.0168844
-0.0171108
-0.0173311
-0.0175427
-0.017747
-0.0179442
-0.0181325
-0.018312
-0.018484
-0.0186465
-0.0188021
-0.0189458
-0.0190821
-0.019209
-0.0193288
-0.0194364
-0.0195352
-0.0196219
-0.0197
-0.0197688
-0.0198271
-0.0198746
-0.0199088
-0.0199319
-0.019943
-0.0199448
-0.0199371
-0.0199223
-0.0198939
-0.0198559
-0.0198093
-0.0197501
-0.0196827
-0.0196075
-0.0195217
-0.0194237
-0.0193215
-0.0192069
-0.0190864
-0.0189526
-0.0188143
-0.0186672
-0.0185129
-0.018351
-0.0181865
-0.0180101
-0.0178332
-0.0176475
-0.0174605
-0.017268
-0.0170703
-0.0168739
-0.0166776
-0.0164773
-0.0162771
-0.0160762
-0.0158723
-0.0156774
-0.0154763
-0.015283
-0.0150891
-0.0148924
-0.0147086
-0.0145232
-0.0143422
-0.0141625
-0.0139924
-0.0138215
-0.0136607
-0.0135007
-0.0133479
-0.0131983
-0.013059
-0.01292
-0.0127821
-0.0126556
-0.0125368
-0.0124177
-0.0123073
-0.0121998
-0.0120981
-0.0119973
-0.0119003
-0.0118033
-0.0117195
-0.0116312
-0.0115508
-0.0114719
-0.0113904
-0.0113203
-0.0112418
-0.0111756
-0.0111054
-0.0110382
-0.0109762
-0.0109075
-0.0108466
-0.0107778
-0.0107179
-0.0106589
-0.010594
-0.0105344
-0.010467
-0.010409
-0.0103389
-0.0102705
-0.0102051
-0.0101341
-0.0100643
-0.00998779
-0.00991305
-0.00985135
-0.00978034
-0.00971966
-0.00968816
-9.4616e-05
-8.62726e-05
-0.000189745
-0.000335392
-0.000475712
-0.000609062
-0.000744704
-0.000882983
-0.00102404
-0.00116839
-0.00131284
-0.00145999
-0.00160958
-0.00176319
-0.0019241
-0.00209277
-0.00227307
-0.00246555
-0.00266724
-0.00288146
-0.0031079
-0.00334514
-0.00359057
-0.00384631
-0.00411014
-0.00438282
-0.00466317
-0.00494822
-0.00523946
-0.00553672
-0.00583747
-0.00613965
-0.00644751
-0.00675796
-0.00706935
-0.00738257
-0.00769645
-0.00800987
-0.00832469
-0.00863766
-0.00895042
-0.00926065
-0.00957002
-0.00987546
-0.0101794
-0.0104796
-0.0107763
-0.0110698
-0.0113606
-0.0116475
-0.0119303
-0.0122093
-0.0124844
-0.0127555
-0.0130221
-0.0132847
-0.0135426
-0.013796
-0.0140445
-0.0142889
-0.0145274
-0.0147621
-0.0149916
-0.0152148
-0.0154327
-0.0156445
-0.0158481
-0.0160467
-0.0162378
-0.0164218
-0.0165982
-0.0167679
-0.016927
-0.0170823
-0.0172272
-0.0173657
-0.0174946
-0.017614
-0.0177271
-0.017832
-0.0179273
-0.0180154
-0.0180924