/*--------------------------------*- C++ -*----------------------------------*\
  =========                 |
  \\      /  F ield         | OpenFOAM: The Open Source CFD Toolbox
   \\    /   O peration     | Website:  https://openfoam.org
    \\  /    A nd           | Version:  8
     \\/     M anipulation  |
\*---------------------------------------------------------------------------*/
FoamFile
{
    version     2.0;
    format      ascii;
    class       volScalarField;
    location    "100";
    object      vpod_2;
}
// * * * * * * * * * * * * * * * * * * * * * * * * * * * * * * * * * * * * * //

dimensions      [0 1 -1 0 0 0 0];

internalField   nonuniform List<scalar> 
12225
(
-0.0115187
-0.00787464
-0.00360938
-0.00143551
-0.000417384
4.57051e-05
0.000245659
0.000331638
0.000335643
0.000277964
0.000216567
0.000148127
3.60435e-05
-0.00015543
1.19647e-05
-0.000803191
0.00583552
-0.00320168
0.00314116
0.00437198
0.00378468
0.00252621
0.00170476
0.0012611
0.00107246
0.00102399
0.00100593
0.000914568
0.000809392
0.000659164
0.000400045
0.000109427
-0.000951832
-0.00265719
-0.00485446
-0.00735397
0.000640948
0.00217844
0.00260443
0.00201071
0.00171264
0.00156584
0.00150534
0.00148098
0.00142469
0.00127026
0.00106781
0.000787546
0.000410209
-0.000147725
-0.00100999
-0.00289491
-0.00362965
-0.00849042
-1.11095e-05
0.00223589
0.00341884
0.00286109
0.00246261
0.00220838
0.00205962
0.00196257
0.00184061
0.00162453
0.00132211
0.000920142
0.000402236
-0.000343407
-0.00149494
-0.00346806
-0.00555637
-0.00989554
-0.000248199
0.00257503
0.00430997
0.00366175
0.00312104
0.00276404
0.00254173
0.00238785
0.00222106
0.00195086
0.00156351
0.00105625
0.000406031
-0.000509641
-0.00185049
-0.00396883
-0.00663904
-0.0109374
-0.000438245
0.00283357
0.00512542
0.00446117
0.00381966
0.00336536
0.00306302
0.00284595
0.00262371
0.00228644
0.00181168
0.00120108
0.000420543
-0.000649695
-0.00215336
-0.00438083
-0.00725858
-0.0113574
-0.000657865
0.00295433
0.00590195
0.0052859
0.00456655
0.00401365
0.00362403
0.00333721
0.00304175
0.00262175
0.00205808
0.00134462
0.00043537
-0.000775719
-0.00240689
-0.00466928
-0.00754059
-0.0113842
-0.000883607
0.00300644
0.00659603
0.00608798
0.00532202
0.00468538
0.00421562
0.00385067
0.00347676
0.002972
0.0023181
0.00149421
0.00045554
-0.000872737
-0.00259193
-0.00484081
-0.00760457
-0.0111602
-0.00112962
0.00299332
0.0071445
0.00681552
0.00605079
0.00535992
0.00481994
0.00437924
0.00393156
0.00334058
0.00258604
0.00164612
0.000491121
-0.000927102
-0.00269915
-0.00489745
-0.00749652
-0.0107319
-0.00141826
0.00278359
0.00752585
0.00745461
0.00674024
0.00602403
0.00543163
0.00492426
0.00439492
0.0037071
0.00284433
0.00178941
0.000533112
-0.000967269
-0.00277939
-0.00490552
-0.00732248
-0.0102682
-0.00177664
0.00255139
0.00793512
0.00810061
0.0074418
0.00670797
0.00606322
0.00547756
0.00485049
0.00405752
0.0030924
0.00194188
0.000599746
-0.000957981
-0.00276299
-0.00477508
-0.00697576
-0.0096526
-0.00195174
0.00265983
0.00824729
0.00852719
0.0079001
0.00716028
0.00647637
0.00583028
0.00513349
0.00425466
0.00320498
0.00197327
0.000566695
-0.001026
-0.00281263
-0.00474296
-0.00677464
-0.00933076
-0.00227804
0.00261996
0.00839078
0.00859812
0.0080811
0.00742195
0.00674646
0.00606701
0.00530729
0.00435115
0.00322185
0.00191925
0.000452205
-0.00117458
-0.00295322
-0.00482778
-0.00676432
-0.00931962
-0.00259879
0.00278423
0.00892613
0.00890832
0.0082729
0.00753993
0.0067786
0.00603066
0.00521089
0.0042012
0.00302941
0.00169508
0.000209325
-0.00139627
-0.00311112
-0.00488647
-0.00669743
-0.00916637
-0.00287222
0.00217835
0.0088504
0.0089667
0.00827297
0.0074424
0.00657124
0.00573589
0.00482941
0.00376193
0.0025542
0.0011942
-0.000274719
-0.00183355
-0.00345912
-0.00511036
-0.0067525
-0.00893651
-0.00289755
0.00114518
0.00785421
0.00831492
0.00775073
0.00692527
0.00600222
0.00510105
0.00412287
0.00301203
0.00177708
0.000437075
-0.000965432
-0.00241784
-0.00386954
-0.00528964
-0.00668507
-0.00855183
-0.00254764
5.56092e-05
0.00588645
0.0065951
0.00624672
0.00555944
0.00471891
0.00385076
0.00288446
0.00181553
0.000654454
-0.000558062
-0.00179288
-0.00302316
-0.00422277
-0.0053663
-0.0064888
-0.00798736
-0.00168949
-0.000719126
0.00313934
0.00377689
0.00362176
0.0031468
0.00249583
0.00176486
0.00094256
6.08527e-05
-0.000855036
-0.00179983
-0.00275134
-0.00366876
-0.00454222
-0.00536444
-0.00617642
-0.00726471
-0.000303378
-0.00066792
-0.000207304
-5.33992e-05
-9.80477e-05
-0.000307827
-0.000656289
-0.0010822
-0.00156482
-0.00208348
-0.00263372
-0.00319809
-0.00375194
-0.00427858
-0.00477407
-0.00522267
-0.00567236
-0.0062435
0.000815572
-0.000134162
-0.0024354
-0.00280998
-0.00290375
-0.00299217
-0.00312843
-0.00331008
-0.00352385
-0.00376371
-0.0040153
-0.00427158
-0.00451323
-0.0047377
-0.00493783
-0.00510854
-0.00528614
-0.00545318
0.00133415
-0.000239136
-0.00379606
-0.00434216
-0.00441532
-0.0044243
-0.00444777
-0.00449645
-0.00456437
-0.00464542
-0.00472851
-0.00481065
-0.00488135
-0.00493623
-0.00497527
-0.00499558
-0.00501886
-0.00497591
0.00159026
-0.000572877
-0.00478066
-0.00528499
-0.00527169
-0.00519558
-0.00513434
-0.00509262
-0.00506715
-0.00503973
-0.00500704
-0.004965
-0.00491438
-0.00484995
-0.00477728
-0.00469224
-0.00461778
-0.00443901
0.0016219
-0.0010546
-0.00542065
-0.0057147
-0.00556256
-0.00540339
-0.00527673
-0.00517443
-0.0050882
-0.00499058
-0.00488572
-0.00477386
-0.00465041
-0.00452923
-0.00439412
-0.00425307
-0.00412871
-0.00384145
0.00147281
-0.00154829
-0.00564024
-0.00562825
-0.00533496
-0.00510972
-0.00494593
-0.00481665
-0.00469928
-0.00456952
-0.00443498
-0.00430445
-0.00416702
-0.00402688
-0.00388197
-0.00373053
-0.00358102
-0.00323069
0.0012087
-0.00189767
-0.0053945
-0.00508269
-0.004701
-0.00445803
-0.00430171
-0.00417905
-0.00406957
-0.00395303
-0.00383211
-0.00371078
-0.00358878
-0.00346377
-0.00333721
-0.00320369
-0.00308493
-0.00274314
0.00089905
-0.00200207
-0.0047722
-0.00428783
-0.003908
-0.00369074
-0.00356375
-0.00346166
-0.0033598
-0.00326358
-0.00316657
-0.00306578
-0.00296984
-0.00286812
-0.0027608
-0.00265971
-0.00256768
-0.00224315
0.000576387
-0.00185122
-0.00385213
-0.00339805
-0.00314633
-0.00300356
-0.00290521
-0.00281313
-0.00271223
-0.0026296
-0.00253455
-0.00243319
-0.002359
-0.0022697
-0.00217584
-0.00210248
-0.00202875
-0.00177272
-3.15873e-05
-0.00177208
-0.00284766
-0.00234609
-0.00220263
-0.00215749
-0.00212146
-0.00207328
-0.00200265
-0.00193713
-0.0018664
-0.00177619
-0.00170725
-0.00163021
-0.00155286
-0.00150194
-0.0014576
-0.00122165
-0.00242077
-0.00407756
-0.00417327
-0.00304816
-0.00233916
-0.00192589
-0.00168087
-0.00151819
-0.00142221
-0.0013326
-0.00126011
-0.00120691
-0.00114789
-0.00110141
-0.00106822
-0.00105023
-0.00105571
-0.00091797
0.00923143
0.0064031
0.00303393
0.00126751
0.000309015
-0.000195924
-0.000437378
-0.000560432
-0.000644188
-0.000652742
-0.00065961
-0.000652705
-0.000600015
-0.00057045
-0.000557473
-0.000542619
-0.000566039
-0.000506793
0.00143646
0.0013296
0.000551674
-0.000347463
-0.00122811
-0.00191203
-0.0023167
-0.00261099
-0.00273569
-0.00279352
-0.00281559
-0.00279868
-0.00275385
-0.00275862
-0.00275616
-0.00279765
-0.00284634
-0.00287892
-0.00286253
-0.00273162
-0.00245752
-0.00216188
-0.00197109
-0.00167431
-0.00138336
-0.00108789
-0.000781858
-0.000476168
-0.000190404
6.63595e-05
0.000280698
0.000457815
0.000597848
0.000707981
0.000787618
0.000847067
0.000888809
0.000918995
0.000941828
0.000960231
0.000974349
0.000985797
0.000998549
0.0010111
0.00102304
0.00103475
0.00105087
0.001066
0.00108369
0.00110039
0.00112205
0.00114021
0.00116179
0.00117785
0.00119658
0.00121434
0.00123741
0.00125215
0.00126651
0.00127755
0.00129129
0.00129707
0.00130548
0.00130517
0.00130737
0.00129977
0.00129578
0.00128117
0.00126879
0.00124813
0.00123167
0.00120783
0.00118508
0.00115028
0.00111907
0.00108201
0.00105032
0.00100757
0.000971144
0.000925842
0.000879849
0.000828721
0.000781875
0.000731881
0.00068047
0.000618592
0.000560021
0.000501306
0.000443025
0.000375643
0.00030433
0.000232145
0.000162275
9.30437e-05
1.84062e-05
-4.54635e-05
-0.00011184
-0.000180218
-0.000246694
-0.000315803
-0.000379039
-0.000439135
-0.00050571
-0.000563996
-0.000610828
-0.000673718
-0.000729359
-0.000775734
-0.000829553
-0.000871937
-0.000913814
-0.000965433
-0.00101342
-0.00105257
-0.0010917
-0.00113089
-0.0011539
-0.00119619
-0.00122643
-0.00123375
-0.0012351
-0.00122106
-0.00123965
-0.00126114
-0.00122858
-0.00119116
-0.00116763
-0.00113968
-0.00116411
-0.00116988
-0.00112038
-0.00107676
-0.00104564
-0.00103535
-0.00100091
-0.000908558
-0.000832333
-0.000813051
-0.000785358
-0.000747454
-0.000729452
-0.000714515
-0.000656646
-0.000598863
-0.000584725
-0.000530376
-0.000498794
-0.000495091
-0.00048637
-0.000415551
-0.000324689
-0.000308516
-0.000325743
-0.000318478
-0.000287576
-0.000250571
-0.000226381
-0.000249678
-0.00022549
-0.000188365
-0.000166062
-0.00013334
-0.000129831
-0.000132257
-0.000124831
-9.85727e-05
-9.96149e-05
-0.000123793
-9.20911e-05
-6.54777e-05
-9.57295e-05
-8.33253e-05
-7.6772e-05
-5.94042e-05
-2.38806e-05
-9.06586e-05
-7.09448e-05
7.7378e-06
0.000139148
0.000398809
0.00210444
0.000405484
-0.00131775
-0.00271501
-0.00390266
-0.00486464
-0.00555527
-0.00599875
-0.00624305
-0.00634273
-0.00633923
-0.0062573
-0.00612057
-0.00594833
-0.00575397
-0.00553312
-0.00527945
-0.0049707
-0.00457696
-0.00405501
-0.00339911
-0.00267132
-0.00196146
-0.00126586
-0.000597202
2.22473e-05
0.00057991
0.00106294
0.00147068
0.00180121
0.00205465
0.00223949
0.00237361
0.00246517
0.00252457
0.00255447
0.00256694
0.00257215
0.00257451
0.00257595
0.00257247
0.00257365
0.00258365
0.00260008
0.00261525
0.00263419
0.00265927
0.00268158
0.00270815
0.00273428
0.00275626
0.00277164
0.00278991
0.00280431
0.00282216
0.00284257
0.00286538
0.00287819
0.00288395
0.00288369
0.00288046
0.00287308
0.00286495
0.00284854
0.00282551
0.00278688
0.0027463
0.00269848
0.00264925
0.00258667
0.00251922
0.00244699
0.00237719
0.0022981
0.002204
0.0021013
0.00199975
0.00189377
0.00178959
0.00167029
0.00155415
0.0014287
0.00130179
0.00117304
0.0010492
0.000914515
0.000774174
0.000643329
0.00050636
0.000363766
0.000218767
7.14231e-05
-7.22237e-05
-0.000220181
-0.000361906
-0.000498366
-0.000634995
-0.000770986
-0.000894614
-0.00100571
-0.00111732
-0.00123195
-0.00134194
-0.00144298
-0.001537
-0.00160849
-0.00168819
-0.00176803
-0.00182581
-0.00188473
-0.00193716
-0.00197533
-0.00201201
-0.00205285
-0.0020741
-0.00209484
-0.00211275
-0.00210207
-0.00210623
-0.00212597
-0.00212729
-0.00210355
-0.00205496
-0.00199821
-0.00196882
-0.00195246
-0.00192496
-0.00187237
-0.0018139
-0.00176559
-0.00171817
-0.00165877
-0.00160348
-0.00154894
-0.00149751
-0.00145176
-0.00138859
-0.00131035
-0.0012409
-0.00116239
-0.00109578
-0.00104001
-0.000990939
-0.000947047
-0.000896484
-0.000867865
-0.000822734
-0.000745837
-0.000684985
-0.000682275
-0.000650318
-0.000578503
-0.000537323
-0.000532832
-0.000500435
-0.000469711
-0.000432469
-0.000378819
-0.000384449
-0.000374757
-0.000352077
-0.000319142
-0.000305276
-0.000299682
-0.000280084
-0.000283772
-0.000226192
-0.000222754
-0.000253489
-0.000201616
-0.000142219
-0.000169967
-0.000181498
-0.000150963
-0.000149109
-0.000129223
-5.70449e-05
6.72365e-05
0.000388522
0.00109096
-0.000846253
-0.00327612
-0.00561031
-0.00744659
-0.00883083
-0.0098214
-0.0104462
-0.0107429
-0.0107712
-0.0106096
-0.0102977
-0.00985038
-0.00930285
-0.0086892
-0.00802633
-0.0073139
-0.00656119
-0.00575112
-0.00485853
-0.00388649
-0.00288337
-0.00189534
-0.000941015
-4.991e-05
0.000754719
0.00146343
0.00207104
0.00256833
0.00296781
0.00327333
0.0034934
0.00364587
0.00375393
0.00382027
0.00386263
0.00388247
0.00388945
0.0038909
0.00389355
0.00390071
0.00391228
0.00393749
0.00396744
0.00399958
0.00403584
0.00408032
0.00412825
0.0041737
0.00422303
0.00427069
0.00431585
0.00435814
0.00439986
0.00443869
0.00447576
0.0045044
0.00452432
0.00453574
0.00454293
0.00454267
0.00453346
0.00451771
0.00449453
0.00446053
0.00441377
0.00435445
0.0042886
0.00421255
0.00412631
0.00402468
0.00391645
0.00379805
0.0036724
0.00353665
0.00338916
0.00323199
0.00306788
0.002898
0.00272241
0.00254003
0.00235476
0.00215599
0.00195298
0.00174331
0.00153143
0.00131337
0.00109343
0.000878353
0.000657991
0.000435753
0.000213002
-1.56095e-05
-0.000250331
-0.000479951
-0.000697828
-0.000916709
-0.00112706
-0.0013301
-0.00152455
-0.001709
-0.00188697
-0.00205651
-0.00221468
-0.00236582
-0.00250904
-0.00262471
-0.00273782
-0.00284599
-0.00292852
-0.00300979
-0.00308551
-0.00313437
-0.00317349
-0.00322113
-0.00325661
-0.00327956
-0.00328889
-0.00327875
-0.0032795
-0.00327154
-0.0032392
-0.00318924
-0.0031191
-0.00304795
-0.00298662
-0.00294524
-0.00289042
-0.0027916
-0.00269951
-0.00262671
-0.00256579
-0.00248501
-0.00239781
-0.00231007
-0.00222917
-0.00215353
-0.00204929
-0.00193931
-0.00183233
-0.00171453
-0.00161139
-0.00154039
-0.00149983
-0.00143446
-0.00133069
-0.00128194
-0.00124054
-0.00114512
-0.00104683
-0.00102438
-0.000994755
-0.000890341
-0.000805344
-0.000794862
-0.00076115
-0.000722405
-0.000672252
-0.000588065
-0.000578089
-0.000565247
-0.00053504
-0.000496682
-0.000461261
-0.000436022
-0.000416448
-0.000420896
-0.000351641
-0.000324926
-0.000356036
-0.000300676
-0.000229487
-0.000262754
-0.000271837
-0.000243848
-0.000227273
-0.000118631
-3.02909e-05
0.000103929
0.000481839
0.00121662
-0.00519493
-0.00769172
-0.0101547
-0.0119734
-0.0132299
-0.0140048
-0.0143413
-0.0143173
-0.0140133
-0.0134967
-0.0128088
-0.011982
-0.0110587
-0.0100602
-0.00899342
-0.00788115
-0.00674447
-0.00557776
-0.00438759
-0.00320369
-0.00205964
-0.000978302
2.25137e-05
0.000917545
0.00169424
0.00235375
0.0029006
0.00334616
0.00370444
0.00398043
0.00419064
0.00435642
0.00448494
0.0045809
0.00465687
0.00471991
0.00477708
0.00483217
0.0048898
0.00495106
0.00501977
0.00509705
0.00517328
0.00525365
0.00534038
0.00542913
0.00551537
0.00560055
0.00568521
0.00576597
0.00584589
0.00592325
0.00599589
0.00606251
0.00611763
0.00615575
0.00618028
0.00619743
0.00621137
0.00621381
0.00620273
0.00617989
0.00614492
0.00609492
0.00602948
0.0059546
0.00586597
0.00576078
0.00564067
0.00550639
0.00536105
0.00519697
0.00501585
0.00482446
0.00462704
0.00441629
0.00419264
0.00395788
0.00371122
0.00346172
0.00320433
0.00293269
0.00265254
0.00236037
0.00205995
0.00175849
0.00145575
0.00114764
0.000840754
0.00053549
0.000229023
-8.22417e-05
-0.0004044
-0.000717733
-0.00101527
-0.00131671
-0.00160421
-0.00187758
-0.0021461
-0.002409
-0.00265986
-0.00289036
-0.0031008
-0.0033038
-0.00349994
-0.00366915
-0.00382062
-0.00396082
-0.00407642
-0.00418411
-0.00428644
-0.00435847
-0.00440746
-0.00445862
-0.00450902
-0.00454007
-0.00455054
-0.00454345
-0.00453287
-0.00449673
-0.0044399
-0.00437718
-0.00429665
-0.00421567
-0.00412076
-0.00404199
-0.00395755
-0.00383026
-0.00370242
-0.00358934
-0.00349973
-0.00339573
-0.00327718
-0.0031485
-0.00302843
-0.00291768
-0.00278019
-0.00264085
-0.00249921
-0.00234706
-0.00220171
-0.00209536
-0.00204264
-0.0019597
-0.00181329
-0.00172662
-0.00167044
-0.00156676
-0.00143775
-0.00137432
-0.00134406
-0.0012349
-0.00110862
-0.00106511
-0.00102338
-0.000980997
-0.000927096
-0.000820214
-0.000783229
-0.000754563
-0.000716849
-0.000684138
-0.000634399
-0.000581296
-0.000555774
-0.000551518
-0.00048588
-0.000426245
-0.000436816
-0.000409096
-0.000343001
-0.000359996
-0.000358951
-0.000354544
-0.00032596
-0.000134729
-2.59908e-05
0.000124559
0.000538395
0.00116058
-0.00983203
-0.012203
-0.0145557
-0.0161275
-0.017059
-0.017467
-0.0174165
-0.0170049
-0.0163279
-0.0154444
-0.0143985
-0.0132313
-0.0119811
-0.0106689
-0.009322
-0.0079688
-0.00661939
-0.00528936
-0.00399869
-0.00276289
-0.00160636
-0.000545979
0.000406341
0.00124048
0.00195968
0.00256914
0.00308383
0.00352004
0.00388272
0.00418282
0.00443488
0.00465423
0.00483909
0.00499767
0.00514342
0.00528312
0.00542076
0.00555638
0.00568938
0.00582093
0.00595665
0.00609625
0.00623641
0.00637891
0.00651994
0.00665931
0.00679534
0.00692659
0.00705256
0.00717124
0.00728452
0.00739179
0.00748983
0.0075767
0.00764978
0.00770695
0.00774956
0.00777984
0.00779837
0.00780215
0.00779024
0.00776265
0.00771855
0.00765732
0.0075784
0.00748439
0.0073715
0.00723882
0.00708894
0.00692306
0.00674063
0.00653785
0.0063148
0.00607525
0.00582359
0.00555638
0.00527553
0.00498044
0.00466966
0.00434984
0.00401967
0.00367587
0.00331788
0.00294797
0.00256958
0.00218687
0.00179953
0.00140593
0.00101522
0.000625099
0.000231392
-0.000164858
-0.000565031
-0.000956183
-0.00133503
-0.00171345
-0.00207906
-0.00242713
-0.00276682
-0.00309719
-0.00341149
-0.00370439
-0.00397712
-0.00423647
-0.00447774
-0.00469547
-0.00489139
-0.00506713
-0.00521984
-0.00535556
-0.00547638
-0.0055713
-0.00564214
-0.00570203
-0.0057563
-0.00579074
-0.00580209
-0.00579134
-0.00576408
-0.00571315
-0.0056424
-0.00556188
-0.00546775
-0.00536821
-0.00525039
-0.0051339
-0.00501267
-0.00486432
-0.00470738
-0.00455799
-0.0044257
-0.00428714
-0.00413638
-0.00397292
-0.00381665
-0.00366318
-0.00349259
-0.00332247
-0.00315126
-0.00297619
-0.00280706
-0.00266736
-0.00256753
-0.00245214
-0.00229904
-0.00217467
-0.00207654
-0.00196165
-0.00182835
-0.00172684
-0.00165728
-0.00154991
-0.00142251
-0.00134301
-0.00127959
-0.00122239
-0.00115436
-0.00105305
-0.000991571
-0.000940629
-0.000888098
-0.00084883
-0.000794011
-0.00072893
-0.000690616
-0.00066299
-0.000610396
-0.000539502
-0.000515116
-0.000507196
-0.000465886
-0.000453199
-0.000433872
-0.00042982
-0.000377283
-0.000180382
-4.71854e-05
0.000132161
0.000520313
0.00105558
-0.013906
-0.0161805
-0.0182192
-0.0194703
-0.0200785
-0.0201422
-0.0197502
-0.0190101
-0.0180171
-0.0168326
-0.015509
-0.0140949
-0.0126295
-0.0111327
-0.00963532
-0.008162
-0.00672936
-0.00535767
-0.00406299
-0.00285486
-0.0017432
-0.000733802
0.000168832
0.000966182
0.00166338
0.00226571
0.00279788
0.00326793
0.00368027
0.00404337
0.00436763
0.00466389
0.00493308
0.00518396
0.00542621
0.00565864
0.00588452
0.00610781
0.0063256
0.00654071
0.00675562
0.00696849
0.0071782
0.00738612
0.0075887
0.00778444
0.00797283
0.00815275
0.00832379
0.00848375
0.0086329
0.00877063
0.00889524
0.00900485
0.0090983
0.00917474
0.00923432
0.00927721
0.00930237
0.00930875
0.00929642
0.00926517
0.00921398
0.00914291
0.00905128
0.00893857
0.00880373
0.00864799
0.00847149
0.00827493
0.00805644
0.0078152
0.0075519
0.00726835
0.00696684
0.00664729
0.00631019
0.00595408
0.00557961
0.00519197
0.00479279
0.00437878
0.00394806
0.00350252
0.00304699
0.00258575
0.00211704
0.00164324
0.00116861
0.000692548
0.000216277
-0.000259392
-0.000734467
-0.00120263
-0.00166265
-0.00211722
-0.00255644
-0.00297722
-0.00338648
-0.00378145
-0.0041562
-0.00450882
-0.00483941
-0.00515137
-0.00543968
-0.00570126
-0.00593787
-0.00615083
-0.00633904
-0.00650258
-0.00664353
-0.00675905
-0.0068492
-0.00691954
-0.00697271
-0.00700488
-0.00701565
-0.0069994
-0.00696058
-0.00689714
-0.00681143
-0.00671233
-0.00660068
-0.00647683
-0.00633655
-0.00618757
-0.00603319
-0.00585915
-0.00567399
-0.00549244
-0.00531776
-0.00513949
-0.00495547
-0.00475947
-0.00456914
-0.00437956
-0.00417717
-0.00397525
-0.00377582
-0.00357736
-0.00338625
-0.00321474
-0.00306847
-0.00291957
-0.00275587
-0.00260302
-0.00246777
-0.00233336
-0.00218964
-0.00206206
-0.00195678
-0.00184164
-0.00171776
-0.00161368
-0.00152407
-0.0014475
-0.00136384
-0.00126404
-0.00118642
-0.00111917
-0.00105405
-0.00100088
-0.000938558
-0.000869445
-0.000817742
-0.000774933
-0.000723682
-0.000655742
-0.000612153
-0.000597029
-0.000561442
-0.00053143
-0.000500581
-0.00047422
-0.00040493
-0.000234642
-7.98076e-05
0.000120359
0.000472187
0.000948535
-0.0171234
-0.0192982
-0.0210112
-0.0219784
-0.0223214
-0.0221269
-0.0214921
-0.0205188
-0.0193101
-0.0179321
-0.0164381
-0.0148784
-0.0132992
-0.0117236
-0.0101765
-0.00867548
-0.00724147
-0.00589938
-0.00464813
-0.0034822
-0.00240974
-0.001435
-0.000555451
0.000237873
0.000951814
0.00158769
0.00217409
0.002712
0.00320539
0.00365453
0.00407365
0.00446975
0.0048443
0.00520095
0.00554612
0.0058801
0.00620747
0.00652861
0.00683862
0.007144
0.00744376
0.00773541
0.00801905
0.00829566
0.00856051
0.00881398
0.0090573
0.00928769
0.00950397
0.009705
0.00989096
0.0100611
0.0102141
0.0103485
0.0104636
0.0105591
0.0106351
0.0106896
0.0107217
0.0107321
0.0107219
0.0106886
0.0106314
0.0105519
0.0104486
0.0103195
0.0101657
0.00998852
0.00978634
0.0095595
0.0093069
0.00902831
0.00872608
0.00840192
0.00805534
0.00768537
0.00729229
0.0068772
0.00644242
0.00599043
0.00552182
0.00503719
0.00453751
0.0040215
0.00349275
0.00295614
0.00241024
0.00185669
0.00129876
0.000740605
0.000185456
-0.000366649
-0.000916944
-0.00146381
-0.00200306
-0.00252994
-0.00303849
-0.00352847
-0.00400316
-0.00446134
-0.00489651
-0.00530753
-0.00569298
-0.00605223
-0.00638622
-0.00669081
-0.00696525
-0.00721384
-0.00743378
-0.00762397
-0.00778736
-0.0079216
-0.00802585
-0.00810454
-0.00815959
-0.00818768
-0.00819177
-0.00817066
-0.00812393
-0.00804726
-0.00794527
-0.00782567
-0.00769268
-0.00754688
-0.00738275
-0.00720394
-0.0070171
-0.00681584
-0.00660288
-0.0063886
-0.0061742
-0.00595391
-0.00573373
-0.00550843
-0.0052848
-0.00506267
-0.004831
-0.00459967
-0.00437488
-0.00415056
-0.00393138
-0.00372872
-0.0035454
-0.00336637
-0.00318259
-0.00300523
-0.00284084
-0.00268485
-0.00252533
-0.00237604
-0.00224571
-0.00211902
-0.00198795
-0.00186507
-0.00175501
-0.00165715
-0.0015584
-0.00145505
-0.00136574
-0.00128737
-0.00121044
-0.0011424
-0.00107081
-0.000995922
-0.000934117
-0.000879626
-0.00082523
-0.00076383
-0.000713351
-0.00068111
-0.000636981
-0.000595083
-0.000555799
-0.000508954
-0.000430966
-0.000279776
-0.000112095
9.72367e-05
0.000413989
0.000842908
-0.0193941
-0.0215151
-0.0229785
-0.023741
-0.0239411
-0.0236017
-0.0228302
-0.021731
-0.0204044
-0.0189338
-0.0173714
-0.015763
-0.014165
-0.0125879
-0.0110524
-0.0095784
-0.00818056
-0.00688097
-0.00567196
-0.00454499
-0.00349776
-0.00252701
-0.00163155
-0.000814023
-5.74784e-05
0.000645182
0.00131109
0.00193719
0.00252517
0.00307675
0.00360775
0.00411857
0.00460899
0.00508012
0.00553965
0.00598566
0.00642099
0.00684217
0.00724775
0.00764644
0.00803464
0.00840821
0.00876692
0.00911199
0.00943829
0.00974964
0.0100466
0.0103258
0.0105872
0.0108299
0.0110532
0.0112564
0.0114382
0.0115981
0.011736
0.011851
0.0119427
0.0120083
0.0120496
0.0120666
0.0120588
0.0120234
0.0119624
0.0118755
0.0117608
0.0116181
0.0114481
0.0112498
0.0110228
0.0107678
0.0104841
0.0101723
0.00983398
0.00946964
0.00907868
0.00866023
0.00821515
0.00774613
0.00725587
0.0067423
0.00620628
0.00565287
0.00508367
0.00449839
0.00390003
0.00329049
0.00267028
0.00203958
0.00140383
0.000769976
0.000137198
-0.000493397
-0.00112042
-0.00174126
-0.00235057
-0.00294544
-0.00352313
-0.00408105
-0.00461997
-0.0051392
-0.0056312
-0.00609634
-0.00653512
-0.00694217
-0.00731883
-0.00766344
-0.00797501
-0.00825617
-0.00850561
-0.00872242
-0.00890526
-0.00905282
-0.00916822
-0.00925475
-0.00931351
-0.00933982
-0.00933549
-0.009306
-0.00924798
-0.00915946
-0.0090439
-0.00890269
-0.00874438
-0.00857367
-0.00838605
-0.00818282
-0.00796453
-0.0077331
-0.00749051
-0.00724306
-0.00699411
-0.00673712
-0.00647922
-0.00622253
-0.00596385
-0.00570777
-0.00545121
-0.00519568
-0.00494596
-0.00469396
-0.00444406
-0.00421145
-0.00399583
-0.00378876
-0.00358395
-0.00338533
-0.00319544
-0.00301525
-0.00283878
-0.00267075
-0.00252005
-0.00237661
-0.00223002
-0.00209302
-0.00197128
-0.00185358
-0.00173818
-0.00162907
-0.00153083
-0.0014434
-0.0013551
-0.00127263
-0.00119251
-0.00110934
-0.00103967
-0.000975898
-0.000915457
-0.000857453
-0.000803816
-0.000757487
-0.000703293
-0.000650641
-0.000599949
-0.000541383
-0.000458606
-0.000314447
-0.000140059
6.93388e-05
0.000354064
0.000740252
-0.0208033
-0.0229793
-0.02433
-0.0250096
-0.0251514
-0.0247364
-0.0239114
-0.0227928
-0.021455
-0.0199836
-0.0184348
-0.0168682
-0.0153236
-0.013786
-0.0122933
-0.0108791
-0.00953717
-0.00827735
-0.0070877
-0.00596355
-0.00490589
-0.0039148
-0.00299098
-0.00212418
-0.0012947
-0.000501952
0.000259375
0.000990114
0.00169526
0.00237129
0.0030231
0.00365771
0.00427088
0.00486253
0.00543899
0.00599786
0.00654019
0.00706058
0.00756421
0.00805857
0.00853184
0.00898379
0.00941427
0.00982561
0.0102147
0.0105848
0.0109354
0.0112632
0.0115694
0.0118523
0.0121116
0.0123467
0.0125571
0.0127427
0.0129032
0.0130369
0.0131432
0.0132214
0.0132737
0.0132972
0.0132917
0.0132567
0.0131939
0.0131003
0.0129756
0.0128204
0.0126356
0.012419
0.0121702
0.0118908
0.0115802
0.0112382
0.0108645
0.0104596
0.0100257
0.00956265
0.00906992
0.00854973
0.00800629
0.00743652
0.00683943
0.00622011
0.00558265
0.00492905
0.00426042
0.00357874
0.00288716
0.00218548
0.001478
0.000770129
6.28817e-05
-0.000642216
-0.00134225
-0.00203287
-0.002709
-0.00336958
-0.00401433
-0.00463797
-0.00523779
-0.00581287
-0.00635965
-0.00687734
-0.00736461
-0.00781771
-0.0082367
-0.00861873
-0.00896482
-0.00927538
-0.00955096
-0.00979083
-0.00999128
-0.0101519
-0.0102781
-0.0103714
-0.0104308
-0.0104527
-0.0104408
-0.0104025
-0.0103324
-0.010231
-0.0101011
-0.00993998
-0.00975661
-0.00955634
-0.00934382
-0.00911773
-0.00886857
-0.00860335
-0.00833238
-0.00805506
-0.00777303
-0.00748416
-0.00719197
-0.0069008
-0.00660826
-0.00631935
-0.00603626
-0.00575472
-0.00547908
-0.00520305
-0.00492718
-0.00466619
-0.00441993
-0.00418409
-0.00395797
-0.003741
-0.00353089
-0.00332681
-0.00313169
-0.00294558
-0.00277508
-0.00261227
-0.0024503
-0.00229951
-0.00216486
-0.00203331
-0.00190512
-0.0017883
-0.00167958
-0.00158139
-0.00148548
-0.00139146
-0.00130383
-0.00121265
-0.00113449
-0.00106381
-0.000996245
-0.000935783
-0.000876218
-0.00082075
-0.000761278
-0.000700361
-0.000637628
-0.000569283
-0.000480243
-0.000341415
-0.000169764
3.40709e-05
0.000293049
0.000642467
-0.0214495
-0.0237736
-0.025086
-0.0257935
-0.0260247
-0.0256978
-0.0249224
-0.0238327
-0.0225386
-0.0211308
-0.0196674
-0.0181898
-0.0167118
-0.0152427
-0.0138237
-0.012472
-0.0111716
-0.00993658
-0.00876071
-0.0076338
-0.00656287
-0.00554236
-0.00455851
-0.00360514
-0.00267322
-0.00177221
-0.00090493
-5.84714e-05
0.000770786
0.00157288
0.00235067
0.00311549
0.00385175
0.00456177
0.00525555
0.00592529
0.00657262
0.00719516
0.00779484
0.00837603
0.00892933
0.0094574
0.00995963
0.0104371
0.0108878
0.0113146
0.0117163
0.012091
0.0124395
0.0127605
0.0130542
0.0133205
0.0135589
0.013769
0.0139506
0.0141017
0.0142232
0.0143152
0.0143771
0.0144067
0.0144058
0.0143739
0.0143096
0.0142115
0.0140797
0.0139137
0.0137152
0.0134826
0.0132158
0.0129148
0.0125781
0.012206
0.0117993
0.0113594
0.0108854
0.010378
0.00984092
0.00927477
0.0086798
0.00805474
0.00740073
0.00672164
0.00602212
0.00530581
0.00457094
0.00381973
0.00305809
0.00228883
0.00151273
0.000733135
-4.41969e-05
-0.000816598
-0.00158249
-0.00234033
-0.00308437
-0.00380949
-0.00451584
-0.00519966
-0.00585617
-0.00648482
-0.00708394
-0.00765185
-0.0081844
-0.00867974
-0.00913793
-0.00955499
-0.00993193
-0.0102684
-0.0105649
-0.0108227
-0.0110403
-0.0112165
-0.0113536
-0.0114497
-0.0115063
-0.0115226
-0.011504
-0.0114543
-0.011371
-0.011256
-0.0111101
-0.0109305
-0.0107239
-0.010497
-0.0102571
-0.0100025
-0.00972358
-0.00942919
-0.00913153
-0.0088226
-0.00850555
-0.00818707
-0.00786614
-0.00754121
-0.00721674
-0.00689793
-0.00658524
-0.00627458
-0.00597362
-0.00567496
-0.00537715
-0.00509077
-0.00481563
-0.00455152
-0.00430346
-0.00406721
-0.00383771
-0.00361342
-0.00340079
-0.00319971
-0.00301057
-0.00282802
-0.00265219
-0.00248736
-0.00233596
-0.00219451
-0.00205992
-0.00193388
-0.00180986
-0.00169835
-0.00159873
-0.00149716
-0.00140218
-0.00130484
-0.00121794
-0.00113927
-0.001065
-0.000999666
-0.000931925
-0.00086967
-0.000809548
-0.000742936
-0.000671132
-0.000591105
-0.000494268
-0.000363846
-0.000200709
-4.76213e-06
0.000236421
0.00055555
-0.0214984
-0.0240932
-0.0254449
-0.0262545
-0.0266523
-0.0264759
-0.0258172
-0.0248415
-0.0236681
-0.022399
-0.02106
-0.0196817
-0.0183034
-0.0169427
-0.0156128
-0.0143229
-0.0130754
-0.0118681
-0.010677
-0.00950913
-0.0083881
-0.00730825
-0.00623876
-0.00518553
-0.0041534
-0.00314582
-0.00215539
-0.00117011
-0.000208759
0.000721196
0.00162658
0.0025122
0.00336634
0.00419392
0.00500082
0.00577938
0.00652666
0.00724489
0.00793593
0.00859907
0.009229
0.00982974
0.0103991
0.0109388
0.0114468
0.0119263
0.0123763
0.0127957
0.0131839
0.0135406
0.0138669
0.0141628
0.0144274
0.0146604
0.0148616
0.0150306
0.0151681
0.0152725
0.0153434
0.0153809
0.0153867
0.0153576
0.0152925
0.0151916
0.0150549
0.0148815
0.0146714
0.0144248
0.014142
0.0138199
0.013459
0.0130596
0.0126242
0.0121524
0.0116415
0.0110945
0.0105159
0.00990549
0.00926035
0.00858223
0.0078772
0.00714561
0.00638961
0.00561232
0.00481429
0.00400002
0.0031755
0.0023441
0.00150405
0.000657972
-0.00018725
-0.00102535
-0.00185379
-0.0026731
-0.00347837
-0.00426443
-0.00502859
-0.0057683
-0.00647963
-0.00715901
-0.00780518
-0.00841859
-0.00899349
-0.00952681
-0.0100186
-0.0104667
-0.0108711
-0.0112311
-0.0115471
-0.0118205
-0.0120508
-0.0122385
-0.0123831
-0.0124799
-0.012531
-0.0125445
-0.0125218
-0.012459
-0.0123598
-0.0122292
-0.012065
-0.0118664
-0.0116384
-0.0113896
-0.0111211
-0.0108341
-0.0105286
-0.0102097
-0.0098823
-0.0095402
-0.00919075
-0.00884443
-0.00849621
-0.00814046
-0.00778667
-0.00743959
-0.00709798
-0.00675911
-0.00643112
-0.00610778
-0.005789
-0.00548054
-0.0051801
-0.0048916
-0.00462364
-0.00436674
-0.00411343
-0.00387077
-0.00364447
-0.0034299
-0.003225
-0.00302556
-0.00283436
-0.00265554
-0.0024898
-0.00234043
-0.00219925
-0.00206246
-0.00192552
-0.00180099
-0.00169475
-0.00158628
-0.00148595
-0.0013836
-0.00128884
-0.00120215
-0.00112134
-0.00105038
-0.000974426
-0.000906172
-0.000844995
-0.000775662
-0.000697403
-0.000608167
-0.000505587
-0.000383855
-0.000227587
-4.01233e-05
0.000185795
0.000478449
-0.0208807
-0.0239478
-0.0256603
-0.0267864
-0.027346
-0.0272759
-0.0267415
-0.025909
-0.0248914
-0.0237669
-0.0225658
-0.0213442
-0.0200972
-0.0188348
-0.017584
-0.0163297
-0.0150955
-0.0138835
-0.0126656