/*--------------------------------*- C++ -*----------------------------------*\
  =========                 |
  \\      /  F ield         | OpenFOAM: The Open Source CFD Toolbox
   \\    /   O peration     | Website:  https://openfoam.org
    \\  /    A nd           | Version:  8
     \\/     M anipulation  |
\*---------------------------------------------------------------------------*/
FoamFile
{
    version     2.0;
    format      ascii;
    class       volScalarField;
    location    "100";
    object      vpod_4;
}
// * * * * * * * * * * * * * * * * * * * * * * * * * * * * * * * * * * * * * //

dimensions      [0 1 -1 0 0 0 0];

internalField   nonuniform List<scalar> 
12225
(
0.00555092
0.00196301
-0.000785817
-0.00152551
-0.00152465
-0.00129763
-0.00103898
-0.000811111
-0.000581986
-0.000365648
-0.000217238
-8.81639e-05
0.00012796
0.00036349
0.000679265
0.00124739
-0.0079269
0.00637432
-0.0016065
-0.00205886
-0.0023824
-0.00168068
-0.00122432
-0.00097987
-0.000906567
-0.000926009
-0.000935152
-0.00079627
-0.000619832
-0.000350111
5.2663e-05
0.000673546
0.0022429
0.0047121
0.0103602
0.0166636
-7.11993e-05
-0.00258396
-0.00356097
-0.00267135
-0.00209464
-0.00172425
-0.0015524
-0.00149139
-0.00140769
-0.00117337
-0.000858023
-0.000398796
0.000226114
0.00115941
0.00270103
0.005665
0.00770974
0.0191291
0.00021622
-0.00312907
-0.00497671
-0.00395775
-0.00316035
-0.00259565
-0.00227552
-0.00208956
-0.00188906
-0.00153446
-0.00103361
-0.000349921
0.000522578
0.00177082
0.00371482
0.00681631
0.0107479
0.0193461
0.000470534
-0.00377729
-0.00644398
-0.00520739
-0.00414766
-0.00338919
-0.00291923
-0.00260967
-0.00229524
-0.0018139
-0.00114905
-0.000281343
0.00081341
0.0023279
0.00453223
0.00782799
0.0121572
0.0195702
0.000747527
-0.00429951
-0.00782707
-0.00647009
-0.00518549
-0.0042422
-0.00361543
-0.0031742
-0.00273315
-0.0021115
-0.00128677
-0.000243467
0.00106463
0.00281521
0.00522569
0.00860289
0.0129159
0.0192229
0.00107669
-0.00462497
-0.00917297
-0.00779932
-0.00631831
-0.0051837
-0.00438664
-0.00379834
-0.00321203
-0.00243357
-0.00144169
-0.000220785
0.00129336
0.00324777
0.00580341
0.00915724
0.0132512
0.0187171
0.00143291
-0.00481889
-0.0104012
-0.00913354
-0.0075097
-0.00619525
-0.00522603
-0.0044767
-0.00373037
-0.0027872
-0.00162539
-0.000220533
0.00148961
0.00360467
0.00624341
0.00951283
0.0133216
0.018145
0.0018315
-0.00488207
-0.0114039
-0.0103912
-0.00870955
-0.00725086
-0.00612115
-0.00520844
-0.00430414
-0.00319462
-0.00185293
-0.00026353
0.00161984
0.00385865
0.00653947
0.00968335
0.0131972
0.0174874
0.002296
-0.0046042
-0.0121373
-0.0115466
-0.0098993
-0.00834165
-0.00707306
-0.0060036
-0.00493441
-0.00364287
-0.00211324
-0.000339544
0.00170366
0.00405448
0.00676324
0.00976737
0.0129996
0.0168719
0.00286349
-0.00427401
-0.0129239
-0.0127351
-0.0111358
-0.00949256
-0.00808635
-0.00684881
-0.00559453
-0.00411317
-0.00240701
-0.000470975
0.00169795
0.00412458
0.00679747
0.00961031
0.0125163
0.0160285
0.00311448
-0.004525
-0.0135854
-0.0135885
-0.0119878
-0.0102709
-0.00875626
-0.00739533
-0.00601819
-0.00439801
-0.00255878
-0.000506606
0.00174725
0.00420003
0.00681624
0.00947573
0.0121265
0.0154944
0.00360594
-0.00447618
-0.0138911
-0.0138018
-0.0123796
-0.0107799
-0.00926363
-0.00783773
-0.00635314
-0.00460815
-0.00264504
-0.000485431
0.0018499
0.00433447
0.0069111
0.00947579
0.0119847
0.0154083
0.00409743
-0.00473013
-0.0148135
-0.0144216
-0.0128627
-0.0111627
-0.00951009
-0.00797041
-0.00639762
-0.00458364
-0.00258402
-0.000397058
0.00192402
0.00433257
0.00676224
0.00914796
0.0114577
0.0147754
0.00452604
-0.00372272
-0.0147354
-0.0146198
-0.0130392
-0.0112585
-0.00948471
-0.00784798
-0.00617525
-0.00432033
-0.00230595
-0.000142589
0.0021022
0.00436691
0.00660775
0.00873278
0.0107747
0.0136817
0.00457425
-0.00198925
-0.013126
-0.013674
-0.0124242
-0.0107755
-0.00902019
-0.00736147
-0.00564365
-0.00378815
-0.0018157
0.000230297
0.00228521
0.0043018
0.0062237
0.00798434
0.00964129
0.0120761
0.00402702
-0.000155216
-0.00990017
-0.0109997
-0.0102862
-0.00902533
-0.00754373
-0.00605493
-0.00447165
-0.00278862
-0.00104674
0.000706011
0.00240399
0.00401766
0.00549705
0.00680944
0.00802716
0.00986904
0.00265753
0.00114345
-0.00537377
-0.00648813
-0.00625331
-0.00550659
-0.00450226
-0.00341693
-0.00224363
-0.00102307
0.000203083
0.00139354
0.00251617
0.00354004
0.00443727
0.00518035
0.00587195
0.00702266
0.000378647
0.00107728
0.00016405
-0.000275922
-0.000393451
-0.000254922
6.47198e-05
0.000470921
0.000914538
0.00137807
0.00182706
0.00223931
0.00258612
0.00285717
0.00304067
0.00312557
0.00320148
0.00347463
-0.00148273
0.000183859
0.00383362
0.00416646
0.00399009
0.0037772
0.00361714
0.00348135
0.00336761
0.00324467
0.0031112
0.00293731
0.0027204
0.0024418
0.00210894
0.00170262
0.00131516
0.000889373
-0.00234902
0.000365216
0.00608634
0.00664761
0.0063628
0.00594281
0.00552506
0.00510635
0.00469592
0.00426691
0.00382124
0.00333164
0.00280533
0.00222228
0.00160341
0.000940007
0.000290395
-0.000495354
-0.00277873
0.000934808
0.00771544
0.00815963
0.00766744
0.00705997
0.00645392
0.00586462
0.00527554
0.00466826
0.00402461
0.00334961
0.00263205
0.00188485
0.00109792
0.000304261
-0.000483712
-0.00145876
-0.00283796
0.0017444
0.00874049
0.00879157
0.00804042
0.00727535
0.00656927
0.00589606
0.00524428
0.00456386
0.00385898
0.00312361
0.0023609
0.00157112
0.000749488
-7.13623e-05
-0.000877535
-0.00197656
-0.00259064
0.00254187
0.0090326
0.00856563
0.00759081
0.00674856
0.00602743
0.00537152
0.00474043
0.0040824
0.00341418
0.00272315
0.00201743
0.00128757
0.000536845
-0.00023274
-0.000986802
-0.00209448
-0.00213129
0.00307397
0.00853984
0.00761353
0.00655206
0.00574709
0.00510538
0.0045344
0.00399409
0.00343797
0.00286984
0.0022819
0.00168582
0.00107587
0.000450286
-0.000189104
-0.000814005
-0.00179907
-0.00156105
0.00320533
0.00744548
0.00629485
0.00531874
0.00464696
0.00413789
0.00367748
0.00322629
0.00278695
0.0023391
0.00186017
0.00139496
0.000916816
0.000422624
-6.08675e-05
-0.000537917
-0.00139832
-0.00100398
0.00294375
0.00594051
0.00486532
0.0041399
0.0036574
0.00328393
0.00293045
0.00257245
0.00224803
0.00189498
0.00151387
0.001174
0.000808384
0.000431582
9.05047e-05
-0.000266539
-0.000938565
-0.000507341
0.00257877
0.00439722
0.00339722
0.00288993
0.00256744
0.00231875
0.00208068
0.00184522
0.00163833
0.00141414
0.00116407
0.000938528
0.000702291
0.000455311
0.000260416
5.14134e-05
-0.0005113
0.00114121
0.00228338
0.00310728
0.00224052
0.00182692
0.00163342
0.00151949
0.00141335
0.00134742
0.00124626
0.00114223
0.0010425
0.000900251
0.000756817
0.000615763
0.000493063
0.000368437
-4.44589e-05
-0.00481605
-0.00149304
0.00101849
0.0016375
0.00170223
0.00153792
0.00126703
0.000985164
0.000757351
0.000514773
0.000332582
0.000199963
5.69245e-05
-2.09123e-05
-4.16912e-05
-1.91517e-05
1.63087e-05
-0.000175784
0.00417122
0.00448605
0.00476047
0.0044863
0.00371421
0.00295842
0.00248839
0.00211729
0.00179815
0.00139552
0.000905689
0.000444386
-7.36772e-05
-0.000665841
-0.00124892
-0.00179191
-0.00223391
-0.00263085
-0.00295395
-0.00317186
-0.00328161
-0.00307104
-0.00248583
-0.00209094
-0.00168117
-0.001277
-0.000899147
-0.000545873
-0.000249445
5.19054e-07
0.000177789
0.000321563
0.000414145
0.000485983
0.000513867
0.000548838
0.000566226
0.00059368
0.000603168
0.000637537
0.000662966
0.00070165
0.000723244
0.000768518
0.000798453
0.000841266
0.000870762
0.000923093
0.000957445
0.00100007
0.00103289
0.00108097
0.001108
0.00114316
0.00115859
0.00116969
0.00117014
0.00117513
0.00117592
0.00117411
0.00115473
0.00113748
0.00111415
0.00108412
0.00103854
0.000988065
0.000934734
0.000872359
0.000808805
0.000740946
0.000669433
0.000584241
0.000505971
0.000427468
0.00034435
0.000253854
0.000167822
7.88046e-05
-5.4858e-06
-8.8258e-05
-0.000167703
-0.000252982
-0.00032371
-0.000408019
-0.000477515
-0.000540967
-0.000599123
-0.000661889
-0.000727729
-0.00078301
-0.000833183
-0.00088198
-0.000928353
-0.000968762
-0.000988144
-0.00101264
-0.00102513
-0.00103022
-0.00103111
-0.00102153
-0.00101195
-0.000998896
-0.000965764
-0.000937301
-0.000918523
-0.000867025
-0.000819906
-0.000776697
-0.000713539
-0.000667621
-0.000621521
-0.000552033
-0.000482156
-0.000422141
-0.000351892
-0.000278298
-0.000202463
-0.000182454
-0.000150636
-3.71518e-05
7.29783e-05
0.000177403
0.000238292
0.000304759
0.000484546
0.000560603
0.000619919
0.000798106
0.000815711
0.000791162
0.000843509
0.000929988
0.000957344
0.000934603
0.000929442
0.000953583
0.00104046
0.00104389
0.00100116
0.00101257
0.00100333
0.000919962
0.000818228
0.000773272
0.000825515
0.000828134
0.000656969
0.00053118
0.000559192
0.000554123
0.000512072
0.000541208
0.000523711
0.000413064
0.000353442
0.000289704
0.000257771
0.000306355
0.000271805
0.000212315
0.000232021
0.000237536
0.00023997
0.000220896
0.000176121
0.000142671
0.000131607
0.000163232
0.000152
9.87616e-05
8.68917e-05
7.66603e-05
7.42165e-05
4.78783e-05
4.61997e-05
0.000152688
8.37037e-05
-4.35636e-05
5.93044e-05
-6.21326e-05
0.00509477
0.00435731
0.00441379
0.00408025
0.00317639
0.00193619
0.000633894
-0.000613583
-0.00175285
-0.0027818
-0.00366891
-0.00446564
-0.00520111
-0.00586157
-0.00640639
-0.00675804
-0.00683773
-0.00663818
-0.00620072
-0.00560059
-0.00489796
-0.00409831
-0.00320804
-0.00234245
-0.00155955
-0.000864852
-0.000292929
0.000164176
0.000496849
0.000735585
0.000887022
0.000988479
0.00103379
0.00105779
0.00105655
0.00106699
0.00107936
0.00110255
0.00112324
0.00116352
0.00122272
0.00129155
0.00135188
0.00143213
0.00152098
0.00161741
0.0016939
0.00177493
0.00184516
0.00191839
0.0019811
0.00204418
0.00209015
0.00213548
0.00215037
0.00213521
0.00210177
0.00206908
0.00203375
0.00198708
0.00192033
0.00183916
0.00174321
0.00163306
0.00151261
0.0013921
0.00125685
0.00110433
0.000940145
0.000775309
0.000606141
0.000418624
0.000219841
1.86511e-05
-0.000164113
-0.000352191
-0.000542418
-0.000738693
-0.000931831
-0.00110754
-0.00128301
-0.00144961
-0.00160481
-0.00176166
-0.00191061
-0.00203794
-0.00213993
-0.00225285
-0.00234364
-0.00241884
-0.00248285
-0.00252933
-0.00256289
-0.00256478
-0.00255339
-0.00253005
-0.00248263
-0.00241222
-0.00234035
-0.00226693
-0.00216814
-0.00204256
-0.00190175
-0.00175728
-0.001606
-0.00147274
-0.00130647
-0.00112833
-0.00097389
-0.000806461
-0.000638232
-0.000483937
-0.000319961
-0.000145692
4.75059e-07
0.00015271
0.000314282
0.000442113
0.000588411
0.000753938
0.000891077
0.000994164
0.00107024
0.00112121
0.00120844
0.00131441
0.00140285
0.00145174
0.00151639
0.00157682
0.00161933
0.00163345
0.00166189
0.0016864
0.00168861
0.00168097
0.00163006
0.00157142
0.00152796
0.00146514
0.00142061
0.00137819
0.00132805
0.0012775
0.0012113
0.00117325
0.00113865
0.0010441
0.000950363
0.000934974
0.00085726
0.000728827
0.000675741
0.000687222
0.000642166
0.000595235
0.00053623
0.000455636
0.000472662
0.000459236
0.000408078
0.000334653
0.00031318
0.000313178
0.000293047
0.000309354
0.00022347
0.000226122
0.000276373
0.000195535
0.000116972
0.000175823
0.000197766
0.000142604
0.000146792
0.000145872
0.000113284
7.28479e-05
-6.36399e-05
-0.000600805
0.00711562
0.00567229
0.00515375
0.00387848
0.00183909
-0.000451802
-0.00264691
-0.00459131
-0.00621128
-0.00745176
-0.00834046
-0.00894995
-0.00930218
-0.00939757
-0.00924014
-0.00883244
-0.00816394
-0.00728492
-0.00628274
-0.00522205
-0.00412242
-0.00302288
-0.00200685
-0.00111541
-0.000368305
0.000224718
0.000660678
0.000965757
0.00114584
0.00123893
0.00127311
0.00126855
0.00123236
0.0012012
0.00117663
0.0011809
0.00121273
0.0012744
0.00135681
0.00146055
0.00158379
0.00171244
0.00185264
0.00200879
0.00216796
0.00232535
0.00248308
0.00263782
0.00277113
0.00289259
0.00299787
0.00308415
0.00314734
0.00319337
0.00321704
0.00322161
0.00320502
0.00316408
0.00309701
0.00301213
0.00290557
0.00277462
0.00262404
0.00245379
0.0022691
0.00206654
0.00184177
0.00159899
0.00134393
0.00108236
0.000805827
0.000515921
0.000216168
-9.06564e-05
-0.000394289
-0.000701529
-0.0010068
-0.00131595
-0.00161866
-0.00191591
-0.00220654
-0.00247551
-0.00272989
-0.00297058
-0.00319396
-0.00339636
-0.00357725
-0.00375044
-0.00389456
-0.00401657
-0.00411705
-0.00418056
-0.00420412
-0.00420338
-0.00418516
-0.00412546
-0.00404294
-0.00393426
-0.00380155
-0.00364688
-0.00346533
-0.00326096
-0.00303921
-0.00279344
-0.00253016
-0.00228257
-0.00200765
-0.00171597
-0.00144532
-0.0011543
-0.000856632
-0.000590238
-0.000322676
-2.72539e-05
0.000253825
0.000518635
0.000766406
0.000982116
0.00121851
0.00144264
0.0016241
0.00177724
0.00188943
0.00199232
0.00211829
0.00226556
0.00237121
0.00240168
0.00243311
0.0024843
0.00254945
0.00256916
0.00256268
0.0025388
0.00251763
0.00250201
0.00243271
0.0023431
0.00225
0.00213953
0.00205016
0.00199789
0.00197953
0.00190527
0.00176699
0.00172904
0.00168447
0.00153227
0.00138435
0.00137186
0.00133789
0.00116919
0.00104099
0.00103937
0.000993988
0.000937023
0.000857545
0.0007254
0.000724686
0.000711083
0.000666556
0.000607601
0.000554543
0.000521174
0.000498046
0.000511985
0.000398429
0.00036889
0.000437451
0.000350544
0.000243858
0.000321223
0.000347426
0.000313773
0.000315266
0.000186839
0.000156377
0.000121198
-0.000118247
-0.000569914
0.00724052
0.00536715
0.00397897
0.00182248
-0.000782453
-0.00335805
-0.00566406
-0.00755751
-0.00897729
-0.00992096
-0.0104391
-0.0105913
-0.0104099
-0.00994902
-0.00927019
-0.00840096
-0.00737419
-0.00627581
-0.00517791
-0.00412123
-0.00313952
-0.00227446
-0.00155774
-0.000984662
-0.000546191
-0.0002316
-2.22149e-05
0.000100225
0.000154392
0.000177866
0.000186712
0.000186401
0.00020014
0.000247836
0.000329425
0.000449474
0.000604894
0.000794104
0.0010101
0.0012494
0.00150235
0.00176304
0.00204051
0.00232081
0.00259211
0.00285577
0.00311406
0.00335685
0.00357626
0.0037748
0.00394328
0.00408097
0.00418802
0.0042638
0.00431476
0.00434689
0.00435296
0.00432126
0.0042435
0.00413745
0.00400381
0.00383812
0.00364381
0.00342361
0.003178
0.00289798
0.00259368
0.00226966
0.00192528
0.00156139
0.0011771
0.000786279
0.000389216
-2.35911e-05
-0.000453432
-0.000884452
-0.00131207
-0.00173803
-0.00215537
-0.00257578
-0.00298343
-0.00336637
-0.00372967
-0.00406453
-0.00437127
-0.00465937
-0.00492189
-0.00515039
-0.00535371
-0.00552892
-0.00566758
-0.00575799
-0.00578771
-0.00578752
-0.00576284
-0.00567705
-0.00556362
-0.00541932
-0.00522837
-0.00499369
-0.00472898
-0.00444742
-0.00414775
-0.00380946
-0.0034394
-0.00307271
-0.00269494
-0.00229891
-0.0019128
-0.00150901
-0.00109131
-0.000704118
-0.000334498
5.78495e-05
0.000458197
0.000832371
0.00117738
0.00149768
0.00181333
0.002086
0.00232285
0.00254737
0.00273231
0.00290536
0.00304762
0.00320675
0.00333837
0.00338781
0.00342365
0.00346968
0.0035404
0.00356824
0.00355217
0.00350381
0.00345934
0.00342189
0.00332611
0.00321512
0.00308944
0.00294037
0.0027951
0.00270123
0.00267878
0.00258598
0.00238599
0.00229477
0.00224111
0.00209011
0.0018981
0.00182587
0.00180119
0.00163135
0.00143903
0.00139055
0.00133922
0.00128121
0.00119595
0.00102668
0.000985732
0.000954121
0.000904003
0.000861109
0.000788478
0.000712698
0.00068658
0.000693231
0.000591664
0.000511053
0.000552921
0.000519984
0.000425762
0.000477973
0.000494227
0.000510507
0.000497541
0.000245396
0.000201838
0.000157796
-0.000154578
-0.000465015
0.00583696
0.00369366
0.00193556
-0.00040752
-0.00295135
-0.00529049
-0.00726216
-0.00876618
-0.00975799
-0.0102789
-0.010395
-0.0101737
-0.00967599
-0.00897959
-0.00814054
-0.00720811
-0.00625286
-0.00533069
-0.00448341
-0.00374957
-0.00313602
-0.00264596
-0.00227288
-0.00199648
-0.00180274
-0.00166963
-0.00158461
-0.00153491
-0.00149074
-0.0014343
-0.00135803
-0.00125965
-0.00111419
-0.000918678
-0.000684023
-0.000412768
-0.000107274
0.000231441
0.00060164
0.000996068
0.00139988
0.00180769
0.00221835
0.00262244
0.00301799
0.003398
0.00375962
0.0040978
0.00440687
0.00468555
0.00492683
0.00512777
0.00528975
0.00541338
0.00550051
0.00555168
0.00556357
0.00553147
0.00545318
0.00533425
0.00517566
0.00497557
0.00473699
0.0044617
0.0041513
0.00380262
0.00342412
0.00301855
0.00258329
0.00211952
0.00163203
0.00113017
0.000617102
9.03839e-05
-0.00045254
-0.0010008
-0.00155234
-0.00210122
-0.00263984
-0.00317451
-0.00369592
-0.00419355
-0.0046615
-0.00509845
-0.00550381
-0.00587899
-0.00621751
-0.00651318
-0.00677721
-0.00700008
-0.00716974
-0.0072839
-0.00733555
-0.00734353
-0.0073074
-0.00720446
-0.00705647
-0.00686961
-0.00662653
-0.00633141
-0.00599711
-0.00563371
-0.00523894
-0.00480486
-0.00434411
-0.00386892
-0.00337866
-0.00287586
-0.00237004
-0.00185478
-0.0013323
-0.000825829
-0.000334229
0.000160726
0.000660571
0.00113632
0.00158096
0.00199352
0.0023804
0.00272615
0.00303414
0.00331897
0.00356996
0.00379831
0.00398264
0.00415574
0.00430173
0.00438464
0.00443616
0.00448173
0.00453538
0.00455563
0.00453301
0.0044704
0.00440468
0.00432888
0.00420854
0.00407443
0.00392391
0.00375484
0.00358353
0.00344694
0.00335928
0.00322853
0.00303025
0.0028828
0.00276955
0.00261387
0.00242392
0.00229208
0.0022085
0.00205077
0.00186157
0.00175598
0.00167334
0.00159626
0.00149422
0.00134014
0.00126111
0.0011978
0.00112975
0.0010833
0.00100867
0.000919123
0.000877221
0.000851927
0.000781121
0.000685651
0.000673895
0.000683008
0.000635743
0.000642127
0.000639362
0.000670291
0.000629807
0.000384594
0.000312499
0.00023139
-5.96181e-05
-0.000304061
0.00402056
0.00182279
0.000133278
-0.00193194
-0.00403393
-0.00590759
-0.00741603
-0.00848544
-0.00910583
-0.00933317
-0.00923769
-0.00888793
-0.00835137
-0.00771433
-0.00703088
-0.00634927
-0.0057161
-0.00515849
-0.0046935
-0.00433264
-0.00406913
-0.00389119
-0.00377681
-0.00370547
-0.00365568
-0.00360488
-0.00355983
-0.0035011
-0.00340701
-0.00326713
-0.00307794
-0.00283976
-0.002541
-0.00218821
-0.00179255
-0.00135088
-0.000869425
-0.000359015
0.000179207
0.000733879
0.00129358
0.00185369
0.00240956
0.0029506
0.00347478
0.00397484
0.00444615
0.00488441
0.00528448
0.0056446
0.00595992
0.0062278
0.00644739
0.00661876
0.00674143
0.00681458
0.00683638
0.00680564
0.00672312
0.00659033
0.006407
0.00617328
0.00589155
0.00556265
0.00518895
0.00477279
0.00431787
0.00382487
0.00329629
0.00273411
0.00214531
0.00153491
0.000905767
0.000259868
-0.000401075
-0.00107088
-0.00174438
-0.00241302
-0.00307162
-0.00372232
-0.00436
-0.00497202
-0.00554906
-0.00608805
-0.00658991
-0.00705456
-0.00747182
-0.00783978
-0.00816004
-0.00842529
-0.00863167
-0.00877508
-0.0088501
-0.00886387
-0.00881291
-0.00869098
-0.00851313
-0.00828313
-0.00798742
-0.00763381
-0.00723288
-0.00679012
-0.00630574
-0.00577898
-0.00522143
-0.004644
-0.00404585
-0.00343131
-0.00280731
-0.0021796
-0.00154884
-0.000926893
-0.000316993
0.00028418
0.000875494
0.00144428
0.00198674
0.00248823
0.00295318
0.00337273
0.00374834
0.0040916
0.00440103
0.00467262
0.00489964
0.00509328
0.00525635
0.00536259
0.0054287
0.00547707
0.00551223
0.00551446
0.00548161
0.00540502
0.00531857
0.00521323
0.00506738
0.00490525
0.00473041
0.00454105
0.00434801
0.00417186
0.0040211
0.00384972
0.00364558
0.00345714
0.00328982
0.00311213
0.00291332
0.00274223
0.00260468
0.00244214
0.00226376
0.00211962
0.00199795
0.00189493
0.00177488
0.00162942
0.00152702
0.00144113
0.00135802
0.00129448
0.00121415
0.00112428
0.00106607
0.00102198
0.000961392
0.000876005
0.000837288
0.000842821
0.000813627
0.000799561
0.000789079
0.00079544
0.000741915
0.00055281
0.000449823
0.000338818
8.7732e-05
-0.000135542
0.00274129
0.00080508
-0.000645927
-0.0022778
-0.00389985
-0.00534068
-0.0064821
-0.00727274
-0.00770701
-0.00784465
-0.00776173
-0.00752527
-0.00718748
-0.00682002
-0.00646812
-0.00616908
-0.00593602
-0.00576025
-0.00565564
-0.00563069
-0.00565936
-0.00571504
-0.00577595
-0.00582951
-0.00585798
-0.00583635
-0.0057839
-0.00567782
-0.00550454
-0.00525006
-0.00492549
-0.00453309
-0.00407041
-0.00354323
-0.00296343
-0.00233564
-0.00167244
-0.000981253
-0.000263467
0.000461431
0.00118637
0.00190612
0.00261287
0.00329613
0.00395551
0.00458204
0.00516739
0.00570995
0.00620575
0.00665155
0.00704267
0.00737689
0.00765314
0.00787093
0.00802868
0.00812552
0.00815953
0.00813326
0.0080472
0.00790006
0.00769006
0.00742171
0.00709694
0.00671423
0.00627806
0.00579326
0.00526034
0.00468029
0.00405917
0.00339997
0.00270858
0.00199003
0.00124527
0.000477383
-0.000306534
-0.00109807
-0.00189102
-0.00268032
-0.00346192
-0.00423158
-0.00498171
-0.00570523
-0.00639562
-0.00704233
-0.00764367
-0.00819906
-0.00869753
-0.00913462
-0.00950929
-0.00982062
-0.0100669
-0.010241
-0.010336
-0.0103498
-0.0102857
-0.010148
-0.00994443
-0.009673
-0.00932862
-0.00891474
-0.00844468
-0.00792174
-0.00735105
-0.00673716
-0.00608309
-0.00540119
-0.0046978
-0.00397129
-0.00323338
-0.00249172
-0.00174761
-0.00101181
-0.000291926
0.00041414
0.00110267
0.0017616
0.00239066
0.00298215
0.00352973
0.00402114
0.00446114
0.00485954
0.00521955
0.00553754
0.00580227
0.00601899
0.0061963
0.00632141
0.0063994
0.00644719
0.0064652
0.00644347
0.00639306
0.00630622
0.00619724
0.0060668
0.0058978
0.0057098
0.00551328
0.00529824
0.00507356
0.00485957
0.00466075
0.00445232
0.00422528
0.00400319
0.00379483
0.0035903
0.00337301
0.00317078
0.00299671
0.00282149
0.00263601
0.00246466
0.00231429
0.00218158
0.00204363
0.00189852
0.00178091
0.0016813
0.0015835
0.00150071
0.00141155
0.00131852
0.00124975
0.0011929
0.00113492
0.00106674
0.00102157
0.00100643
0.000972532
0.000948635
0.000934361
0.000917607
0.000862624
0.000715538
0.000594622
0.000469347
0.000257778
4.55342e-05
0.00238328
0.000977787
-0.000161566
-0.00143239
-0.0026755
-0.00384367
-0.00481791
-0.00554166
-0.0060136
-0.00626776
-0.00637999
-0.00641549
-0.00639862
-0.0064012
-0.006452
-0.00656022
-0.00672514
-0.00691803
-0.00714144
-0.00739223
-0.00765006
-0.00789384
-0.00809642
-0.0082276
-0.00828987
-0.00827241
-0.00818285
-0.00800075
-0.00771699
-0.0073279
-0.00685458
-0.00629653
-0.00565631
-0.00494227
-0.00417377
-0.00335582
-0.0025019
-0.00161696
-0.000710575
0.000192069
0.00108698
0.0019703
0.00283291
0.00366496
0.00446574
0.00522143
0.00592496
0.00657604
0.00716902
0.00770068
0.00816771
0.00856794
0.00890061
0.00916383
0.00935566
0.00947597
0.00952431
0.00950402
0.00941197
0.00924788
0.0090129
0.0087122
0.00834332
0.00790813
0.00741204
0.00685722
0.0062455
0.00558177
0.00487029
0.00411381
0.00331843
0.00248861
0.00162718
0.000740288
-0.000164475
-0.00107815
-0.00199431
-0.0029093
-0.00381814
-0.00470781
-0.0055706
-0.00640564
-0.00720522
-0.00795896
-0.00866263
-0.00930942
-0.0098906
-0.0103976
-0.0108322
-0.0111964
-0.0114804
-0.0116788
-0.0117885
-0.0118082
-0.0117423
-0.0115913
-0.0113577
-0.011044
-0.0106497
-0.0101767
-0.00964058
-0.00904147
-0.00838334
-0.00767825
-0.00693009
-0.00614643
-0.00533599
-0.00450006
-0.0036495
-0.0027918
-0.00193769
-0.00109519
-0.000267592
0.000544251
0.00133333
0.0020858
0.00279773
0.00347243
0.00409662
0.0046624
0.00517048
0.0056206
0.00602231
0.00638001
0.00668148
0.00692845
0.00711842
0.00725499
0.00733961
0.00738394
0.0073913
0.00735179
0.00727748
0.00717418
0.00703815
0.00687975
0.00669446
0.00648748
0.00626777
0.00602254
0.00576128
0.00551107
0.00527109
0.00502811
0.0047763
0.00452628
0.00428257
0.0040462
0.0038084
0.00358075
0.00337802
0.00318104
0.00297558
0.0027864
0.00262161
0.00246049
0.00230121
0.00215305
0.00202535
0.00191547
0.00180353
0.00170245
0.00160549
0.00150514
0.00142945
0.00136355
0.00130289
0.00124739
0.00120258
0.00117144
0.00112952
0.00109694
0.00107317
0.00104716
0.000994691
0.000868549
0.000740014
0.000613567
0.000437122
0.000237577
0.00323215
0.00257952
0.00167398
0.00059729
-0.000530141
-0.00170858
-0.00274636
-0.00357631
-0.0042342
-0.00474556
-0.0051726
-0.00554343
-0.00589354
-0.00631599
-0.00679072
-0.00728469
-0.00781289
-0.00834917
-0.0088887
-0.00941214
-0.00988833
-0.0102894
-0.0105863
-0.0107731
-0.0108601
-0.0108308
-0.0106813
-0.0104055
-0.0100081
-0.00948472
-0.00884724
-0.00811383
-0.00728647
-0.00637646
-0.00540668
-0.00438657
-0.00333053
-0.00224283
-0.00114601
-6.44119e-05
0.00100956
0.00206457
0.00308924
0.00407358
0.00501437
0.00589823
0.00671975
0.00747849
0.00816771
0.00878534
0.00932846
0.00979463
0.0101821
0.0104888
0.0107136
0.0108581
0.0109219
0.0109055
0.0108052
0.0106259
0.0103682
0.0100333
0.00962009
0.0091349
0.00858036
0.007958
0.00726921
0.00652104
0.0057187
0.00486359
0.00396219
0.00302091
0.00204676
0.00104554
2.1133e-05
-0.00101729
-0.00205987
-0.00310089
-0.00413686
-0.00515157
-0.00613292
-0.00707912
-0.00798569
-0.00884434
-0.00964564
-0.0103818
-0.0110471
-0.0116308
-0.0121302
-0.0125453
-0.0128679
-0.0130934
-0.0132191
-0.0132471
-0.0131799
-0.0130153
-0.0127508
-0.0123952
-0.0119524
-0.0114251
-0.0108214
-0.0101455
-0.0094033
-0.00860645
-0.00776069
-0.00687703
-0.00596044
-0.00501796
-0.0040571
-0.00308776
-0.00212382
-0.00117395
-0.00023789
0.00067796
0.00156333
0.00240475
0.00320162
0.00395774
0.00465658
0.00529312
0.00586713
0.00636967
0.00681165
0.00719819
0.00753293
0.00781039
0.00801222
0.00815143
0.00824364
0.00828692
0.00828317
0.00823037
0.00813515
0.00800707
0.0078444
0.00765806
0.00745256
0.00722263
0.00697742
0.00670738
0.00641639
0.00613097
0.00585116
0.00557176
0.0052951
0.00502273
0.00475215
0.00448332
0.00422206
0.00397074
0.00374088
0.00351813
0.00329352
0.00308709
0.00290588
0.00272681
0.00255215
0.0023972
0.00225691
0.0021344
0.00201533
0.00190054
0.0017971
0.00168955
0.00160583
0.00153455
0.00146893
0.00141632
0.00136803
0.00132899
0.00128627
0.00124743
0.00121224
0.00117909
0.00112573
0.00101647
0.000894498
0.000773493
0.000623213
0.000435459
0.00540091
0.00530499
0.00441333
0.00333382
0.00218432
0.000921209
-0.000311536
-0.00143419
-0.0024224
-0.00328829
-0.00408373
-0.00484526
-0.00563501
-0.0064929
-0.00737673
-0.00826166
-0.00916322
-0.0100386
-0.0108654
-0.0116267
-0.0122796
-0.0128062
-0.0132016
-0.0134558
-0.0135674
-0.0135127
-0.0132821
-0.0128971
-0.012368
-0.0116881
-0.010874
-0.00995786
-0.00892928
-0.00780907
-0.00663053
-0.00539884
-0.00413378
-0.00284716
-0.00155698
-0.000283847
0.000974269
0.00220106
0.00338623
0.00452014
0.00559836
0.00660884
0.00754744
0.00841212
0.00919684
0.00989953
0.0105167
0.0110455
0.0114852
0.0118344
0.0120925
0.0122613
0.0123386
0.0123241
0.0122188
0.0120265
0.0117441
0.0113737
0.0109192
0.0103845
0.00977128
0.00908303
0.00832004
0.00748876
0.00659394
0.00564096
0.00463762
0.00359002
0.00250353
0.00138397
0.000241023
-0.000917535
-0.00208785
-0.00325904
-0.00441951
-0.00555543
-0.00665758
-0.00772014
-0.00873837
-0.00970542
-0.0106052
-0.0114286
-0.0121735
-0.012833
-0.0133973
-0.0138615
-0.0142247
-0.0144832
-0.0146311
-0.0146652
-0.0145896
-0.0144091
-0.014118
-0.0137238
-0.0132336
-0.0126505
-0.0119782
-0.0112245
-0.0103995
-0.00951297
-0.00857072
-0.00758735
-0.00656757
-0.0055217
-0.00445695
-0.00338166
-0.00230673
-0.00124468
-0.000200333
0.000813033
0.00178897
0.00271767
0.0036003
0.00443255
0.00520288
0.00590726
0.0065426
0.00709779
0.00758107
0.00799835
0.00835902
0.0086548
0.00886863
0.00901522
0.00911443
0.00915043
0.00913037
0.00906609
0.00895723
0.00880284
0.00861444
0.00840273
0.00816993
0.00791111
0.00764092
0.00734773
0.00703255
0.00671576
0.00639824
0.0060826
0.00577989
0.00548417
0.00518875
0.00489349
0.00461029
0.00434039
0.00408525
0.00383597
0.00359465
0.00337032
0.00316681
0.00297751
0.00279803
0.00263268
0.00247188
0.00233362
0.00221483
0.00209295
0.00198272
0.00187043
0.00177767
0.00169914
0.0016293
0.0015753
0.00151981
0.00147648
0.00143988
0.00139783
0.00135474
0.00130974
0.00125226
0.00116358
0.00105634
0.000942195
0.000805504
0.000626483
0.00862605
0.00889754
0.00786574
0.00661744
0.00532352
0.00384648
0.00231368
0.00084283
-0.000526869
-0.00177504
-0.00299755
-0.00422729
-0.00547223
-0.0067468
-0.00804128
-0.00932888
-0.0105822
-0.0117795
-0.0129187
-0.0139499
-0.0148033
-0.0154647
-0.0159583
-0.0162598
-0.0163546
-0.0162374
-0.0159229
-0.0154402
-0.0147712
-0.0139207
-0.0129189
-0.0117947
-0.0105501
-0.00921576
-0.00782221
-0.00637836
-0.00489973
-0.00340823
-0.00192328
-0.000458299
0.000981265
0.00237642
0.00372102
0.0050027
0.00621702
0.00735183
0.00840329
0.00936878
0.0102452
0.0110294
0.011717
0.0123057
0.0127959
0.0131864
0.0134771
0.0136676
0.0137567
0.0137466
0.0136384
0.0134318
0.0131242
0.0127216
0.0122283
0.0116454
0.0109745
0.0102199
0.00938444
0.00847217
0.00748801
0.00644214
0.0053395
0.00418703
0.00298745
0.00174999
0.000488984
-0.000791337
-0.0020881
-0.00338569
-0.00466573
-0.00591981
-0.00714609
-0.00833016
-0.00946178
-0.0105321
-0.0115273
-0.0124405
-0.0132689
-0.0140051
-0.0146339
-0.0151476
-0.0155471
-0.0158338
-0.0160031
-0.0160456
-0.0159655
-0.0157661
-0.0154475
-0.0150146
-0.0144747
-0.0138348
-0.0130984
-0.0122687
-0.0113615
-0.0103877
-0.00935462
-0.00827368
-0.00715361
-0.00600529
-0.00483738
-0.00365838
-0.00247948
-0.00131068
-0.000163553
0.000943845
0.00200534
0.00302513
0.00399535
0.00489862
0.00573337
0.00650078
0.00719073
0.00779586
0.00832025
0.00877308
0.00915283
0.0094571
0.00968499
0.00984381
0.00994063
0.00996497
0.00993101
0.00985624
0.00973313
0.00955551
0.0093435
0.0091075
0.00884655
0.00855854
0.008259
0.00793877
0.00760117
0.00725837
0.00690862
0.00656259
0.00623628
0.00591423
0.00558713
0.00526934
0.00497076
0.00468444
0.00440845
0.00413699
0.00387623
0.00363469
0.00341328
0.00321684
0.00303191
0.00285399
0.00267728
0.00252379
0.0024002
0.00227253
0.00215895
0.00204374
0.00194314
0.00185718
0.00178274
0.00172542
0.00166205
0.00161524
0.00158334
0.0015423
0.00149428
0.00144023
0.00138026
0.00131056
0.001214
0.00110723
0.000980933
0.000810249
0.0122602
0.0129997
0.0121036
0.0108522
0.00926746
0.00736077
0.0053871
0.00346084
0.00162436
-0.000116591
-0.00184284
-0.00352905
-0.00524165
-0.00699316
-0.00874357
-0.0104926
-0.0121668
-0.013729
-0.0151791
-0.0164386
-0.0174669
-0.0182618
-0.0188304
-0.0191502
-0.0192268
-0.0190492
-0.0186258
-0.0179918
-0.0171524
-0.0161167
-0.0149168
-0.0135861
-0.0121244
-0.0105698
-0.00895514
-0.0072938
-0.0056072
-0.00391817
-0.00223456
-0.000579624
0.00103578
0.00259541
0.00409416
0.00551721
0.0068603
0.00811132
0.00926859
0.0103314
0.0112965
0.012158
0.012912