/*--------------------------------*- C++ -*----------------------------------*\
  =========                 |
  \\      /  F ield         | OpenFOAM: The Open Source CFD Toolbox
   \\    /   O peration     | Website:  https://openfoam.org
    \\  /    A nd           | Version:  8
     \\/     M anipulation  |
\*---------------------------------------------------------------------------*/
FoamFile
{
    version     2.0;
    format      ascii;
    class       volScalarField;
    location    "100";
    object      vpod_3;
}
// * * * * * * * * * * * * * * * * * * * * * * * * * * * * * * * * * * * * * //

dimensions      [0 1 -1 0 0 0 0];

internalField   nonuniform List<scalar> 
12225
(
0.00257663
0.00425618
0.00385866
0.00276711
0.00185113
0.0012129
0.000791005
0.000521869
0.000312696
0.000131632
4.75928e-06
-0.000106154
-0.000269925
-0.000497859
-0.00052881
-0.00136813
0.00615199
-0.00506478
-0.0004707
-0.000880561
-0.000257492
-0.000306407
-0.000302693
-0.000225298
-6.81e-05
0.000127855
0.000283651
0.000299958
0.00026023
0.000131688
-0.000141038
-0.000539504
-0.00183972
-0.00400376
-0.00774668
-0.0126555
-0.000343599
0.00158559
0.00250304
0.00181829
0.00131029
0.00100211
0.000873375
0.000844031
0.000798494
0.000636683
0.000409576
7.50992e-05
-0.00039178
-0.00111021
-0.00227818
-0.00477261
-0.00619462
-0.0143655
-0.000229415
0.00220126
0.00350322
0.00264779
0.00200483
0.00159929
0.00139468
0.00129217
0.00116968
0.000925261
0.000564709
6.69337e-05
-0.000584879
-0.00154389
-0.00305722
-0.00562598
-0.00862812
-0.0150142
-0.000421235
0.0025878
0.00452184
0.00359417
0.00281504
0.00229052
0.00198393
0.0017933
0.00159348
0.00126202
0.000781984
0.000144308
-0.000679275
-0.0018502
-0.0035814
-0.00628527
-0.00975164
-0.0154881
-0.000670461
0.0029444
0.00557955
0.00462224
0.00370479
0.00304854
0.00262784
0.00234235
0.0020562
0.00162777
0.00103155
0.000261634
-0.000725281
-0.00208067
-0.0039844
-0.00675421
-0.0103035
-0.0153998
-0.000926876
0.00318971
0.00662079
0.00568837
0.00465284
0.00386614
0.00332683
0.00294053
0.00255226
0.00201254
0.00129846
0.000398484
-0.000744224
-0.00225854
-0.00428379
-0.00703513
-0.0104581
-0.0150126
-0.00118547
0.0033404
0.00755767
0.00673563
0.00562514
0.00472373
0.00407134
0.00357562
0.00307818
0.00242442
0.00159225
0.00055732
-0.000735114
-0.00237388
-0.00446955
-0.00715148
-0.0103623
-0.0144431
-0.00147296
0.00339315
0.00831532
0.00770641
0.00658273
0.005598
0.00484375
0.00424109
0.00364025
0.00287266
0.00191357
0.000741535
-0.000681798
-0.00241201
-0.00453937
-0.00711587
-0.0100782
-0.0137163
-0.00181312
0.00319208
0.00886581
0.00858205
0.00751069
0.00647824
0.00564241
0.00494237
0.00423193
0.00333935
0.0022466
0.000939261
-0.000599041
-0.00241052
-0.00455621
-0.00701107
-0.00972412
-0.0129912
-0.00223566
0.00295261
0.00944981
0.00947138
0.00846139
0.00739263
0.00647738
0.00566956
0.00483277
0.00380767
0.00258986
0.00116851
-0.000461955
-0.00232534
-0.00443679
-0.0067276
-0.00915902
-0.0120974
-0.00242785
0.00313839
0.00992402
0.0100911
0.00910492
0.00801208
0.00703991
0.0061555
0.00523464
0.0041079
0.00279156
0.0012807
-0.000414231
-0.00229903
-0.00436432
-0.0065305
-0.00874288
-0.011534
-0.00280298
0.00311741
0.0101596
0.0102528
0.0094066
0.0084134
0.00745125
0.00652664
0.00553081
0.00431372
0.00290561
0.00131608
-0.000439732
-0.00234809
-0.00438172
-0.00646375
-0.00854916
-0.0113468
-0.00317366
0.00333807
0.010875
0.0107246
0.00975734
0.00868387
0.00762095
0.00661584
0.00555544
0.00428522
0.00284282
0.00123006
-0.000525
-0.00238251
-0.00431091
-0.00625199
-0.00817269
-0.0108669
-0.00349184
0.00261329
0.010837
0.0108845
0.00987952
0.00871715
0.00754084
0.00644675
0.00529978
0.00398519
0.00252371
0.000911707
-0.000795328
-0.00256144
-0.00435439
-0.00611238
-0.00781986
-0.0101757
-0.00351473
0.00135836
0.00965756
0.0101745
0.00938204
0.0082767
0.00707524
0.00593109
0.0047239
0.00338677
0.00192986
0.000381727
-0.00120506
-0.00280424
-0.00436106
-0.00583043
-0.00723378
-0.00921145
-0.00308405
3.70514e-05
0.00727957
0.00815886
0.00770694
0.00683926
0.00579505
0.00473507
0.00358411
0.00233714
0.00101387
-0.000341657
-0.00168633
-0.00299063
-0.00421905
-0.00534297
-0.0064085
-0.00793552
-0.00203187
-0.000885901
0.00393959
0.00477785
0.00462587
0.00408618
0.00334223
0.00252005
0.00161147
0.00065299
-0.00032399
-0.00130198
-0.00225462
-0.00314328
-0.00395117
-0.00466395
-0.0053433
-0.00636324
-0.000314601
-0.000782585
-0.000136473
0.000148348
0.000194667
4.6174e-05
-0.000253668
-0.000632667
-0.00105887
-0.00151219
-0.00197682
-0.00243306
-0.00285409
-0.00322543
-0.0035402
-0.00378378
-0.00401803
-0.00439964
0.00108023
-7.84871e-05
-0.00282654
-0.00315541
-0.00311935
-0.00306384
-0.0030568
-0.00308681
-0.00314501
-0.003215
-0.0032856
-0.00334038
-0.00336555
-0.00335267
-0.00330015
-0.00319682
-0.0030993
-0.00298016
0.00173116
-0.000179229
-0.00446615
-0.00498517
-0.00489716
-0.00471697
-0.00454662
-0.00439309
-0.00425618
-0.00412003
-0.00397604
-0.00381115
-0.00362097
-0.00339566
-0.00314307
-0.0028576
-0.00257439
-0.00220031
0.00205631
-0.000568851
-0.00564366
-0.00609122
-0.00587163
-0.00556899
-0.00527698
-0.00500719
-0.0047507
-0.00448628
-0.0042024
-0.00389711
-0.00356681
-0.0032134
-0.00283649
-0.00244535
-0.00205843
-0.00153884
0.00210416
-0.00114148
-0.00638505
-0.00655262
-0.00614836
-0.00573507
-0.00536812
-0.00503393
-0.00472104
-0.00438991
-0.00404233
-0.00367564
-0.00328838
-0.00289017
-0.00246844
-0.00203944
-0.00162297
-0.000997376
0.00192513
-0.00171451
-0.00659246
-0.00637611
-0.00579657
-0.00531008
-0.00491598
-0.00457601
-0.00425618
-0.00391712
-0.00356829
-0.00321077
-0.00284097
-0.00245829
-0.00206308
-0.00165381
-0.00124865
-0.000587279
0.00158702
-0.00208946
-0.00620241
-0.00563454
-0.00497042
-0.00448536
-0.00412473
-0.0038216
-0.00354273
-0.00325307
-0.00295413
-0.0026456
-0.00233185
-0.00200932
-0.00167834
-0.00133574
-0.00100587
-0.000402235
0.0011422
-0.00220119
-0.00536055
-0.00458098
-0.00394955
-0.00354032
-0.00325687
-0.00301354
-0.00277618
-0.0025463
-0.00231127
-0.00206098
-0.00181762
-0.00156488
-0.00130165
-0.00104475
-0.00079447
-0.000255827
0.000711406
-0.00211676
-0.00432658
-0.00350503
-0.00297471
-0.0026549
-0.00243851
-0.00224859
-0.00205653
-0.00188878
-0.00170007
-0.00149491
-0.001321
-0.00112724
-0.000925888
-0.000749285
-0.000565235
-0.000148532
0.000576227
-0.00175021
-0.00335695
-0.00268691
-0.0022822
-0.00201022
-0.0018112
-0.00163956
-0.00147493
-0.00133687
-0.00119487
-0.00103416
-0.000898693
-0.000756533
-0.000612745
-0.00050592
-0.00039868
-3.82603e-05
0.000502792
0.000470713
-0.000437617
-0.000227018
-0.00023609
-0.000322068
-0.000421864
-0.000495585
-0.000573071
-0.000606299
-0.00062307
-0.000633247
-0.000607597
-0.000576462
-0.000544993
-0.000520293
-0.00050123
-0.000272631
-0.00165451
-0.00358578
-0.00362541
-0.00282071
-0.00213974
-0.00162748
-0.00122695
-0.000931615
-0.00073835
-0.000554459
-0.000428831
-0.000332837
-0.000214839
-0.000143554
-0.000107664
-9.06354e-05
-0.000108471
2.04634e-05
-0.00150682
-0.00255451
-0.00365977
-0.00444071
-0.00479056
-0.00476624
-0.00454375
-0.00399713
-0.00348941
-0.00312055
-0.00283147
-0.00253977
-0.00231905
-0.00207874
-0.00180868
-0.00150414
-0.0011219
-0.000716777
-0.000323336
3.2823e-05
0.000274535
0.000582999
0.0010975
0.00138462
0.0016245
0.00179932
0.00190676
0.0019444
0.00192964
0.00187179
0.00179168
0.00169095
0.00159052
0.00148878
0.0014015
0.00131328
0.00123929
0.00116615
0.00111096
0.00104983
0.000999812
0.000945096
0.000904343
0.000850221
0.000804805
0.000747455
0.000699279
0.000633146
0.000577198
0.00050867
0.000447812
0.000370382
0.000306708
0.000227591
0.000159965
8.52419e-05
2.16248e-05
-5.87149e-05
-0.000133289
-0.000216522
-0.000288177
-0.000374412
-0.000449788
-0.000534648
-0.000608717
-0.00069298
-0.000766575
-0.000849509
-0.000923693
-0.00100441
-0.00107273
-0.00114301
-0.00120588
-0.00127617
-0.0013344
-0.00139215
-0.0014383
-0.0014893
-0.0015284
-0.00156776
-0.0016002
-0.00162898
-0.00165048
-0.00166275
-0.00167303
-0.00168559
-0.00169067
-0.00168656
-0.00167459
-0.00166395
-0.00164348
-0.0016141
-0.00157413
-0.0015293
-0.00148791
-0.00143058
-0.00137196
-0.00131052
-0.00124338
-0.00117437
-0.00109534
-0.00101297
-0.000939135
-0.000854845
-0.000759082
-0.000683685
-0.000602992
-0.000513348
-0.000437804
-0.000347993
-0.0002584
-0.000185933
-0.00011284
-2.81063e-05
5.0734e-05
0.000128613
0.000212538
0.000314624
0.00041671
0.000491386
0.000568297
0.000648025
0.000728072
0.000796577
0.000823303
0.0008932
0.000953757
0.000942187
0.00098799
0.00104397
0.00105412
0.00103703
0.00103837
0.00105618
0.00105713
0.00104289
0.000984032
0.000956171
0.000942092
0.000889403
0.000839618
0.000820575
0.000807032
0.000751058
0.000653538
0.000580135
0.000627191
0.000632347
0.000504624
0.000441611
0.000421892
0.000368837
0.000361762
0.000374575
0.000358335
0.000388605
0.000357518
0.000278368
0.000260008
0.00027317
0.000235373
0.000209881
0.000230158
0.000202546
0.000187972
0.000232867
0.000198941
0.000131587
0.000169423
0.000179164
9.24277e-05
9.27079e-05
9.24351e-05
9.38639e-05
0.000129086
1.93687e-05
-2.91999e-05
-7.45428e-05
-0.000184171
-0.000176283
-0.00552087
-0.00698901
-0.00785266
-0.00824868
-0.00819561
-0.00771708
-0.00692514
-0.00593649
-0.00486269
-0.00380801
-0.002855
-0.00198779
-0.00116905
-0.000360089
0.000429266
0.00123474
0.00205838
0.00288444
0.00360608
0.00418946
0.00460041
0.0048583
0.00505461
0.00514301
0.00511675
0.00498546
0.0047752
0.00450611
0.00421363
0.00391136
0.00361777
0.00333588
0.00308831
0.00286664
0.00267817
0.00250266
0.00234807
0.00220792
0.00208742
0.00196943
0.00185125
0.00173385
0.00162804
0.00151296
0.00139175
0.00126059
0.00113574
0.000995169
0.000855928
0.00070384
0.000549072
0.000379713
0.000215789
4.03842e-05
-0.000122417
-0.000279922
-0.000429494
-0.000593542
-0.00075892
-0.000929087
-0.00109132
-0.00125616
-0.0014107
-0.00156794
-0.00172157
-0.00188675
-0.00203971
-0.00218993
-0.00232788
-0.00247012
-0.00260226
-0.0027245
-0.00282723
-0.00292549
-0.00302505
-0.00311723
-0.00319084
-0.0032523
-0.00329528
-0.00333905
-0.00336269
-0.00337924
-0.0033815
-0.00336578
-0.00333082
-0.00329221
-0.00324901
-0.00317913
-0.00310592
-0.00302447
-0.00292804
-0.00281814
-0.00269091
-0.00256213
-0.00241915
-0.00226398
-0.0021057
-0.00194554
-0.00176859
-0.00157789
-0.00139141
-0.00121291
-0.00103474
-0.000852239
-0.000670637
-0.000472703
-0.000299233
-0.000137303
3.74182e-05
0.000197091
0.000349253
0.000504293
0.000643794
0.000764931
0.000895086
0.00100984
0.00110826
0.00122308
0.00130981
0.00136723
0.00143211
0.00150924
0.00159337
0.00167773
0.00171755
0.00172823
0.00173605
0.0017557
0.00175373
0.0017371
0.00171719
0.00170463
0.0016695
0.00162213
0.00157568
0.0015247
0.00149706
0.00146937
0.0014215
0.00138032
0.00132139
0.00125433
0.00118519
0.00110867
0.00104037
0.000952497
0.00086703
0.000834624
0.000808723
0.000727265
0.000690713
0.00069307
0.000645242
0.000557878
0.000513842
0.000477618
0.000459523
0.000462642
0.000399518
0.000358899
0.000350037
0.000353956
0.00032374
0.000287845
0.00026707
0.000219024
0.000257136
0.00022676
0.000157267
0.000196599
0.000240971
0.000171884
0.000122889
0.000117959
6.15775e-05
1.06457e-05
-3.62206e-05
-0.000133572
-0.000277041
-0.000312677
-0.011806
-0.0130604
-0.013669
-0.0133727
-0.0123246
-0.0108042
-0.00902103
-0.00711308
-0.00519688
-0.0033809
-0.00170509
-0.000155804
0.00126196
0.00254304
0.00368842
0.00471565
0.00560582
0.00634418
0.00692017
0.00732188
0.00752617
0.00755847
0.00746954
0.00725243
0.00692788
0.00653183
0.00609959
0.00565092
0.00522058
0.00481769
0.00444964
0.00412448
0.00385304
0.00361726
0.00341947
0.00324119
0.00307893
0.00292582
0.00278172
0.00263973
0.00249527
0.00235352
0.00220412
0.00203927
0.00186424
0.00168077
0.00148574
0.00127464
0.00106059
0.000835717
0.000603437
0.000363849
0.000123437
-0.000122461
-0.000368657
-0.000621485
-0.000876462
-0.00113368
-0.00138692
-0.00164244
-0.0018956
-0.00214577
-0.00239166
-0.00263597
-0.00287908
-0.00312055
-0.00335076
-0.00357388
-0.0037885
-0.00400028
-0.00419679
-0.00438112
-0.00454883
-0.00470261
-0.00484398
-0.00496983
-0.00507752
-0.00516431
-0.00523135
-0.00527867
-0.00530269
-0.00531525
-0.00530645
-0.00527718
-0.00522559
-0.00515558
-0.00506553
-0.00494676
-0.00481489
-0.00466392
-0.00449081
-0.0043039
-0.00410646
-0.0038884
-0.0036461
-0.00339861
-0.0031351
-0.00286027
-0.00257519
-0.00228079
-0.0019836
-0.00168421
-0.00138122
-0.00108359
-0.000791199
-0.000483301
-0.000194703
7.68982e-05
0.000357009
0.000612514
0.000849788
0.00109447
0.00132257
0.00151154
0.00168936
0.00185574
0.00201065
0.0021634
0.0022754
0.00237065
0.00246947
0.00256181
0.00265555
0.00272866
0.00276173
0.00275036
0.00274022
0.00276234
0.00275943
0.00272038
0.00265137
0.00259516
0.00253832
0.00247698
0.00240044
0.00230832
0.00224523
0.00218753
0.00212501
0.00207112
0.00199754
0.00189055
0.00175218
0.00164878
0.00159445
0.00146943
0.0013494
0.00131336
0.00128113
0.00115565
0.00104771
0.00104404
0.00102199
0.000913038
0.00084152
0.000787109
0.000752334
0.000764004
0.000685951
0.000621281
0.000584487
0.000560372
0.000539122
0.00050714
0.000470984
0.000413449
0.000451589
0.000431019
0.000343016
0.000368615
0.000406962
0.000311645
0.000247397
0.000219599
0.000158773
0.000178011
9.64965e-05
-4.07504e-05
-0.00012358
-0.00021464
-0.016258
-0.0167961
-0.0168083
-0.0157284
-0.0138804
-0.0116097
-0.00912775
-0.00660875
-0.00418011
-0.00192466
0.000126523
0.00196402
0.00357075
0.00495346
0.00613051
0.00709375
0.00782972
0.00835392
0.00867684
0.00879954
0.00873776
0.00853383
0.00823171
0.00785075
0.0074178
0.00696468
0.0065161
0.00609441
0.00571585
0.00537682
0.00508244
0.00483956
0.0046357
0.00445574
0.00429624
0.00414822
0.00400649
0.00386398
0.00371792
0.00356299
0.0033997
0.00322635
0.00303044
0.00281766
0.00259238
0.00235044
0.00208799
0.00180947
0.00151925
0.00121516
0.00090413
0.000586381
0.000262507
-6.68295e-05
-0.000405695
-0.000758892
-0.00111968
-0.00147883
-0.00182829
-0.00217892
-0.00253017
-0.00287824
-0.00322257
-0.00356449
-0.00390248
-0.00422814
-0.00454502
-0.00485465
-0.00515328
-0.00543889
-0.00570633
-0.00596354
-0.0062066
-0.0064257
-0.00661542
-0.00678472
-0.00693252
-0.00705525
-0.00715374
-0.00721642
-0.00725075
-0.00726379
-0.00724867
-0.00721016
-0.00714546
-0.00704629
-0.00691585
-0.0067607
-0.00657423
-0.00635683
-0.0061128
-0.00584804
-0.00557357
-0.00526821
-0.00492949
-0.00458617
-0.0042181
-0.00382958
-0.00343634
-0.00304029
-0.00263612
-0.002218
-0.00179032
-0.00137372
-0.000969816
-0.000558564
-0.000154564
0.000230793
0.000614233
0.000971012
0.00129933
0.00162803
0.00194631
0.00222107
0.0024591
0.00268249
0.00289227
0.00308404
0.00324185
0.00339293
0.0035317
0.00364007
0.00373745
0.00380331
0.00385417
0.00385494
0.0038377
0.003847
0.00383392
0.0037836
0.00368604
0.00359215
0.00350507
0.00342063
0.00331554
0.00318945
0.00309264
0.00299606
0.00290097
0.00281643
0.00272449
0.00258992
0.00239637
0.00224837
0.00218256
0.00204302
0.00187955
0.00179228
0.00174207
0.00161343
0.0014556
0.00141156
0.0013973
0.00128627
0.00118413
0.00109606
0.00103264
0.00104107
0.000965472
0.000889553
0.000833977
0.000777816
0.000751353
0.0007334
0.000683966
0.000615917
0.000630155
0.00063395
0.000553028
0.000525821
0.000541905
0.000450174
0.000378975
0.00030029
0.000231395
0.00032263
0.000229827
7.76025e-05
3.50057e-05
-0.000157209
-0.0186552
-0.018681
-0.0180483
-0.0163287
-0.0139216
-0.0111872
-0.00832849
-0.00551853
-0.00288765
-0.000495666
0.00162983
0.00347478
0.00503208
0.00631635
0.007333
0.00808625
0.00860217
0.00890259
0.00901014
0.00895932
0.00877687
0.00849863
0.00815894
0.00778239
0.00739744
0.00702303
0.00667996
0.00638251
0.00612513
0.0059054
0.00572305
0.00557747
0.00544728
0.00532476
0.00521088
0.00509979
0.0049847
0.00485702
0.00470964
0.00453969
0.00435125
0.00414233
0.00390878
0.00365326
0.00337293
0.00306984
0.00274426
0.00239763
0.00203289
0.00165066
0.00125641
0.000852478
0.000438234
1.40271e-05
-0.000420513
-0.000865236
-0.00131618
-0.00176833
-0.00221831
-0.00266823
-0.00311693
-0.00356162
-0.00400187
-0.00443663
-0.00486451
-0.00528045
-0.00568715
-0.00608345
-0.00646385
-0.00682526
-0.00716665
-0.00749084
-0.00779589
-0.00807567
-0.0083236
-0.00854337
-0.00873167
-0.00888841
-0.0090146
-0.0091014
-0.00915111
-0.00916779
-0.00915245
-0.00910299
-0.00901687
-0.0088906
-0.00872697
-0.00852991
-0.00829026
-0.00801367
-0.00770667
-0.00737047
-0.0070105
-0.00661535
-0.00618678
-0.00574489
-0.0052778
-0.00478492
-0.00428313
-0.00377496
-0.00325643
-0.0027256
-0.00218971
-0.00166137
-0.00113894
-0.000619947
-0.000111254
0.000382572
0.000862629
0.00131873
0.00174683
0.00215938
0.00255192
0.00290718
0.00321929
0.00350596
0.00377021
0.00401086
0.00422179
0.00441286
0.00458057
0.0047136
0.00481962
0.00489034
0.00494343
0.0049565
0.00494171
0.00492866
0.00489706
0.00483109
0.00472209
0.00460295
0.004484
0.00436787
0.0042315
0.00408275
0.0039501
0.00381375
0.00367801
0.00354731
0.00341237
0.0032475
0.00304212
0.00286532
0.00274195
0.00258866
0.00241658
0.00228232
0.00218205
0.00205053
0.00189278
0.00179864
0.00174113
0.00163391
0.0015199
0.00141252
0.00133138
0.00130006
0.00122566
0.00114891
0.00108469
0.00101176
0.000967628
0.000942649
0.000889295
0.000830399
0.000809206
0.000811334
0.000757559
0.000687888
0.000657439
0.000586991
0.000518952
0.000418448
0.000356019
0.000427018
0.000339208
0.000201098
0.000136651
-8.78317e-05
-0.0193655
-0.0188899
-0.017764
-0.0157135
-0.0131114
-0.010252
-0.00733718
-0.00453156
-0.00194836
0.000360284
0.00236734
0.00405876
0.00543588
0.00652664
0.00734731
0.00792095
0.00828074
0.00845553
0.00847813
0.0083868
0.00821426
0.00799227
0.00774469
0.00749248
0.00725098
0.00702763
0.00684622
0.00670473
0.00659362
0.00650684
0.00643978
0.00638805
0.00633622
0.00628061
0.00622035
0.00614318
0.00604432
0.00592246
0.00576965
0.00558635
0.00537423
0.00513095
0.00485543
0.00455103
0.00421575
0.00385142
0.00346003
0.00304343
0.0026048
0.00214509
0.00166805
0.00117632
0.000671342
0.000153991
-0.000374122
-0.000911029
-0.0014537
-0.00199934
-0.00254648
-0.00309395
-0.00363923
-0.00417998
-0.00471512
-0.00524233
-0.00576016
-0.00626683
-0.00676133
-0.0072399
-0.00769986
-0.00813805
-0.00855465
-0.0089483
-0.00931594
-0.00965368
-0.00995715
-0.0102252
-0.0104562
-0.0106508
-0.0108072
-0.0109186
-0.0109831
-0.0110053
-0.0109877
-0.0109289
-0.0108246
-0.0106715
-0.0104745
-0.0102333
-0.00994569
-0.00961565
-0.00924419
-0.0088341
-0.00838954
-0.0079082
-0.00739461
-0.00685794
-0.00629124
-0.00569682
-0.00508969
-0.00447098
-0.00383937
-0.0031977
-0.00255323
-0.00191451
-0.00128171
-0.000654525
-4.15346e-05
0.000553259
0.00112704
0.00167783
0.00219926
0.00269451
0.00316036
0.0035897
0.00397808
0.00433084
0.00464719
0.0049355
0.00519031
0.00541639
0.00561155
0.00576685
0.00588338
0.00596429
0.00601662
0.00603412
0.00601665
0.00598608
0.00593433
0.00584797
0.00572705
0.00558908
0.00544001
0.00529104
0.00512226
0.00494354
0.00477491
0.00460238
0.00442637
0.0042514
0.00407234
0.00387695
0.0036604
0.00345855
0.00328514
0.00310846
0.0029247
0.00275766
0.002617
0.00246898
0.00230849
0.00217809
0.00207347
0.00195773
0.00183874
0.0017191
0.00162303
0.00155858
0.00147611
0.00139297
0.00131882
0.00123958
0.00118196
0.00114094
0.00108502
0.00102627
0.000985356
0.000968199
0.000922832
0.000845764
0.000792681
0.000727699
0.00065584
0.000563981
0.000501004
0.000517829
0.000440419
0.000316856
0.000224216
7.66943e-06
-0.0190202
-0.0181158
-0.0167364
-0.0146518
-0.0121216
-0.00938
-0.0066198
-0.00398925
-0.00159966
0.000502683
0.00230063
0.00378897
0.00497118
0.00588206
0.00655293
0.00702151
0.0073179
0.00746326
0.00750346
0.0074835
0.0074238
0.00734183
0.00725476
0.00718013
0.00712589
0.00708754
0.00708914
0.00711781
0.00716293
0.00720926
0.00725838
0.00730359
0.0073332
0.00734052
0.00732348
0.00727461
0.00719346
0.00707611
0.00691415
0.00671431
0.00647536
0.00619529
0.00587553
0.00551991
0.00512564
0.00469672
0.00423805
0.00375006
0.00323513
0.00269567
0.0021357
0.00155783
0.000963995
0.000355867
-0.000263857
-0.000892697
-0.00152719
-0.00216698
-0.00281015
-0.00345314
-0.00409172
-0.00472625
-0.00535497
-0.0059732
-0.00658042
-0.00717613
-0.00775635
-0.00831686
-0.00885687
-0.00937318
-0.00986449
-0.0103286
-0.01076
-0.0111545
-0.0115108
-0.0118284
-0.0121053
-0.0123387
-0.0125249
-0.0126603
-0.0127443
-0.0127764
-0.0127558
-0.0126854
-0.0125624
-0.0123831
-0.0121524
-0.0118714
-0.0115396
-0.0111557
-0.01072
-0.0102367
-0.00971254
-0.00915132
-0.00855446
-0.00792289
-0.00725607
-0.006561
-0.0058482
-0.00512274
-0.00438275
-0.0036342
-0.00288187
-0.00213196
-0.00139152
-0.000661014
5.53481e-05
0.000747405
0.00141528
0.00205652
0.00266441
0.00323978
0.00378162
0.00428257
0.00473952
0.00515639
0.00552919
0.00586023
0.00615138
0.00640971
0.00663079
0.0068071
0.00693633
0.00702163
0.00707318
0.0070899
0.00706805
0.00702029
0.00694725
0.00684078
0.00670458
0.0065505
0.00637521
0.00618956
0.00598849
0.00577609
0.00556971
0.0053599
0.00514243
0.00492832
0.00471452
0.00448965
0.00425271
0.00402425
0.003815
0.00361137
0.00340817
0.00321362
0.00304133
0.00287271
0.00269814
0.00253858
0.0024022
0.00227182
0.00214197
0.00201435
0.00190438
0.00181433
0.00171922
0.00162427
0.00154063
0.00145743
0.0013898
0.00133598
0.00127418
0.00121215
0.00115787
0.00111709
0.00106572
0.000994572
0.000936974
0.000871564
0.000794109
0.0007109
0.000640695
0.000617337
0.000544407
0.000427743
0.000311846
0.000111543
-0.0178893
-0.0169879
-0.0156426
-0.0137171
-0.0114462
-0.00896325
-0.00645852
-0.00407796
-0.0019224
-5.0257e-05
0.00153211
0.00283271
0.00385123
0.0046422
0.00524354
0.00568801
0.00600839
0.00622026
0.00636607
0.00648211
0.0065888
0.00670071
0.00682271
0.00694986
0.0070967
0.00726152
0.00745211
0.00765038
0.00784344
0.00801924
0.00818335
0.0083238
0.00843009
0.00849535
0.00852181
0.00850165
0.00843459
0.00831422
0.00813815
0.00791766
0.00764935
0.00733031
0.00696296
0.00655176
0.00609416
0.00559871
0.0050699
0.00450747
0.00391561
0.00329712
0.00265522
0.00199279
0.00131185
0.000615429
-9.31553e-05
-0.000811533
-0.00153708
-0.00226985
-0.0030048
-0.00373872
-0.00446924
-0.00519683
-0.00591605
-0.00662415
-0.00732079
-0.00800296
-0.00866685
-0.00931062
-0.00993157
-0.0105255
-0.0110904
-0.0116228
-0.0121175
-0.0125717
-0.0129834
-0.0133517
-0.0136734
-0.0139435
-0.0141579
-0.0143186
-0.0144241
-0.0144682
-0.01445
-0.0143712
-0.0142297
-0.0140262
-0.0137632
-0.0134444
-0.0130669
-0.012627
-0.0121308
-0.0115818
-0.0109846
-0.0103424
-0.0096561
-0.00893007
-0.00816851
-0.0073763
-0.0065616
-0.00573178
-0.00488437
-0.00402896
-0.00317272
-0.00231761
-0.00147101
-0.000638339
0.000176986
0.000965214
0.00172485
0.00245166
0.0031451
0.0038026
0.00441894
0.00498735
0.00550649
0.00598078
0.00640857
0.00678324
0.00711142
0.00739664
0.00763714
0.00783317
0.0079778
0.00806892
0.00811713
0.00812453
0.00809609
0.00803378
0.00794079
0.00781423
0.00765605
0.00747936
0.00728065
0.00706181
0.00683151
0.00658789
0.00633946
0.00608773
0.00583063
0.00558172
0.00533853
0.00508481
0.00482411
0.00456871
0.00432683
0.00409399
0.0038691
0.00365261
0.00345215
0.00326075
0.00306806
0.00288772
0.00273144
0.00258165
0.00243178
0.00229638
0.00217619
0.00206438
0.0019541
0.00184574
0.00175322
0.00166634
0.00158888
0.00152624
0.00145651
0.00138914
0.001326
0.00126578
0.0012042
0.00113623
0.00107701
0.00101083
0.000933225
0.00084978
0.000770716
0.000725594
0.00065339
0.000537412
0.000403232
0.00021692
-0.0167707
-0.0161789
-0.0150224
-0.0133627
-0.0113918
-0.00917437
-0.00693816
-0.00483186
-0.00291934
-0.00125623
0.000151544
0.00129835
0.00220711
0.00296262
0.00357822
0.00406379
0.00446998
0.00481731
0.0051424
0.005466
0.00579449
0.00612984
0.00646733
0.00681241
0.00717882
0.00755398
0.00793058
0.00829587
0.00864262
0.00895452
0.00922635
0.00945742
0.00963491
0.00975279
0.00981442
0.00981433
0.00975214
0.00962088
0.00942816
0.00918499
0.00887919
0.0085139
0.00809301
0.00762229
0.007102
0.00654073
0.00594191
0.00530591
0.00463821
0.00394119
0.00321815
0.00247256
0.00170737
0.000926164
0.000132056
-0.000673679
-0.00148833
-0.00230937
-0.00313105
-0.00395377
-0.00477449
-0.00559047
-0.00639664
-0.00719323
-0.00797744
-0.00874524
-0.00949188
-0.0102165
-0.0109163
-0.0115856
-0.0122216
-0.0128213
-0.0133819
-0.0138995
-0.0143683
-0.0147862
-0.0151514
-0.0154594
-0.0157037
-0.0158877
-0.0160119
-0.0160701
-0.0160579
-0.0159744
-0.0158207
-0.0155971
-0.0153036
-0.014945
-0.0145204
-0.0140285
-0.0134737
-0.0128603
-0.0121913
-0.0114691
-0.0106956
-0.00987815
-0.00902539
-0.00813899
-0.00722474
-0.00629006
-0.00533965
-0.00438123
-0.00342206
-0.00246525
-0.00151868
-0.000585773
0.000325348
0.00120843
0.00205771
0.00286962
0.0036447
0.00437975
0.00506537
0.00569812
0.00627807
0.00680896
0.00728597
0.00770131
0.00806367
0.0083742
0.00863179
0.00884288
0.0090001
0.00910122
0.00914564
0.00914045
0.00910337
0.00903035
0.00891485
0.00876401
0.00858225
0.00837785
0.0081524
0.00790572
0.00764594
0.00737146
0.0070847
0.00679527
0.00650166
0.00621559
0.00593942
0.00565769
0.00537377
0.00509472
0.00482244
0.00455863
0.0043077
0.00407161
0.00384721
0.00363399
0.0034241
0.00322797
0.00305315
0.00288535
0.00271867
0.00256947
0.00243584
0.00230614
0.00218368
0.002065
0.00195971
0.00186652
0.00177896
0.00170806
0.00163186
0.0015569
0.00148704
0.00141523
0.00134719
0.00127691
0.00121104
0.00114253
0.00106714
0.000982992
0.000899288
0.000837527
0.000757801
0.00063981
0.000495447
0.000321823
-0.0159244
-0.0158378
-0.0149223
-0.0135775
-0.0119795
-0.0101153
-0.00815752
-0.00626204
-0.00453187
-0.00302486
-0.00174585
-0.000681227
0.000221834
0.00101498
0.0017014
0.00230233
0.00287128
0.00341517
0.00395452
0.00450783
0.00506632
0.00563266
0.0062143
0.00680721
0.00740987
0.00799749
0.00855305
0.00907979
0.00957093
0.0100045
0.0103758
0.0106922
0.0109297
0.0110877
0.0111768
0.0111873
0.011122
0.0109796
0.0107649
0.0104863
0.010136
0.00972159
0.00924686
0.00871725
0.00813475
0.00750755
0.00683875
0.00613041
0.00538783
0.00461381
0.00381253
0.00298793
0.00214274
0.00128034
0.000403599
-0.000486158
-0.00138455
-0.00228829
-0.00319471
-0.00410343
-0.00500849
-0.0059073
-0.00679817
-0.00767936
-0.00854697
-0.0093979
-0.0102262
-0.0110298
-0.0118048
-0.0125476
-0.0132559
-0.0139256
-0.0145517
-0.0151291
-0.0156552
-0.0161261
-0.0165344
-0.0168779
-0.0171549
-0.0173659
-0.0175087
-0.0175784
-0.01757
-0.0174808
-0.0173156
-0.0170753
-0.0167566
-0.0163605
-0.0158914
-0.0153512
-0.0147393
-0.0140594
-0.0133169
-0.0125186
-0.0116661
-0.0107625
-0.00981891
-0.00883922
-0.00782791
-0.00679327
-0.0057444
-0.00468779
-0.00362879
-0.00257287
-0.00152961
-0.000500648
0.000503882
0.00147919
0.00241779
0.00331412
0.00416467
0.00496804
0.00571744
0.00641391
0.00705372
0.00763737
0.00815781
0.00861272
0.00900664
0.00933982
0.00961346
0.00983526
0.0100004
0.0101063
0.0101488
0.0101369
0.0100885
0.0099986
0.0098586
0.00968623
0.00948377
0.00924971
0.00899183
0.00871833
0.00842866
0.00812196
0.00780303
0.00748187
0.00715312
0.00683061
0.00651913
0.00620849
0.00590176
0.00560106
0.00530145
0.00500994
0.00473399
0.00447613
0.00422876
0.00399211
0.00376566
0.00355628
0.00336293
0.00317935
0.00300216
0.0028355
0.00268198
0.00253808
0.00241063
0.00228553
0.00216328
0.00205977
0.00196296
0.00188241
0.00180083
0.00172028
0.00164378
0.00156398
0.00149278
0.00141793
0.00134052
0.00126753
0.00119214
0.00111187
0.00102785
0.000948453
0.000856984
0.000736994
0.000592046
0.000432082
-0.0156224
-0.0162214
-0.0155341
-0.0144772
-0.0132285
-0.0116731
-0.00995531
-0.00825571
-0.00668044
-0.00530138
-0.00408282
-0.00300375
-0.00204709
-0.00117727
-0.000364182
0.00041419
0.0011792
0.00195056
0.00276149
0.0036016
0.004436
0.00526336
0.00610798
0.00694887
0.00776769
0.00854779
0.0092858
0.00998587
0.0106163
0.0111604
0.0116212
0.0120014
0.012284
0.0124749
0.0125817
0.012597
0.0125202
0.0123574
0.0121148
0.0117957
0.0113987
0.0109337
0.0104029
0.00981348
0.00916795
0.00847524
0.0077388
0.00696177
0.00614771
0.0053006
0.00442574
0.00352691
0.00260636
0.00166741
0.000712873
-0.000254271
-0.0012299
-0.00221268
-0.00319992
-0.00418796
-0.00517116
-0.00614966
-0.00712179
-0.00808328
-0.00903001
-0.00995899
-0.0108657
-0.0117458
-0.0125945
-0.0134113
-0.0141911
-0.0149293
-0.0156181
-0.0162538
-0.0168361
-0.0173575
-0.0178092
-0.0181902
-0.0185031
-0.0187434
-0.0189022
-0.0189798
-0.0189743
-0.0188836
-0.0187102
-0.0184523
-0.0181063
-0.0176731
-0.0171613
-0.0165742
-0.0159107
-0.0151698
-0.0143574
-0.0134841
-0.0125528
-0.0115681
-0.0105379
-0.00946881
-0.00836634
-0.00723724
-0.00609145
-0.00494012
-0.00378588
-0.00263506
-0.00149646
-0.000376104
0.000717865
0.00177958
0.00280174
0.00377734
0.00470202
0.00557096
0.00638168
0.00713774
0.00783489
0.00846217
0.00901828
0.00951025
0.0099351
0.0102893
0.0105788
0.0108089
0.0109777
0.0110806
0.0111218
0.0111072
0.0110432
0.0109305
0.0107708
0.0105794
0.010354
0.0100895
0.00979958
0.00949762
0.00917733
0.00883882
0.0084897
0.00813848
0.00777972
0.00742595
0.0070805
0.00673946
0.0064084
0.00608403
0.00575754
0.0054428
0.00514967
0.0048699
0.00459718
0.00433765
0.00409345
0.00386951
0.00366164
0.00346383
0.00327474
0.00308992
0.00291847
0.00276354
0.00262918
0.00249846
0.0023641
0.00225032
0.00214249
0.00205161
0.00196431
0.00187888
0.00179635
0.00171028
0.00163676
0.00155719
0.00146959
0.00138943
0.00131211
0.00123414
0.00114958
0.00105518
0.000956644
0.000835651
0.0006926
0.000544653
-0.0158662
-0.0172171
-0.0170541
-0.0164377
-0.0154276
-0.0140186
-0.0124381
-0.0108556
-0.00936621
-0.00801624
-0.00677526
-0.0056593
-0.00460361
-0.00357186
-0.00255792
-0.00151952
-0.000470862
0.000593793
0.0017053
0.00282675
0.00394003
0.00504632
0.00615101
0.00722843
0.00826956
0.00924865
0.010153
0.0109866
0.0117317
0.0123721
0.0129101
0.0133495
0.0136699
0.0138818
0.013994
0.0140024
0.0139105
0.0137255
0.0134453
0.0130807
0.0126354
0.0121182
0.0115307
0.0108827
0.0101771
0.0094235
0.00862431
0.0077816
0.0068995
0.00598457
0.0050421
0.00407506
0.00308566
0.00207661
0.00105189
1.46494e-05