/*--------------------------------*- C++ -*----------------------------------*\
  =========                 |
  \\      /  F ield         | OpenFOAM: The Open Source CFD Toolbox
   \\    /   O peration     | Website:  https://openfoam.org
    \\  /    A nd           | Version:  8
     \\/     M anipulation  |
\*---------------------------------------------------------------------------*/
FoamFile
{
    version     2.0;
    format      ascii;
    class       volScalarField;
    location    "100";
    object      vpod_1;
}
// * * * * * * * * * * * * * * * * * * * * * * * * * * * * * * * * * * * * * //

dimensions      [0 1 -1 0 0 0 0];

internalField   nonuniform List<scalar> 
12225
(
-0.00322311
-0.00159725
-0.000620993
-0.000296443
-0.000127618
1.19351e-06
8.90686e-05
0.000144455
0.000167998
0.000153679
0.000140656
0.000122478
9.42182e-05
2.15917e-05
0.000344108
-8.91226e-05
0.00494516
-0.00115762
0.000957997
0.00133716
0.00120009
0.00072993
0.000466562
0.000357674
0.000331976
0.000354725
0.000385797
0.000369506
0.000352136
0.000321275
0.000236805
0.000196635
-0.000259341
-0.00101224
-0.000900571
-0.000942038
0.000164408
0.00110096
0.00152716
0.0011542
0.000944158
0.000840632
0.00078135
0.000748204
0.000718596
0.00064819
0.000567987
0.000459423
0.0003198
0.000127196
-0.000146459
-0.000831066
-0.000431948
-0.000943513
-5.05336e-05
0.00130005
0.00194713
0.00153111
0.00128828
0.00116541
0.00109053
0.00104424
0.000999879
0.000915621
0.000797326
0.000640121
0.000446495
0.000175327
-0.000230055
-0.000980776
-0.00140039
-0.00267992
-0.000194228
0.00143611
0.00242908
0.00204036
0.00175102
0.00157651
0.00146331
0.00138947
0.00132619
0.00121904
0.00105968
0.000853107
0.000598443
0.000246059
-0.000264687
-0.00112259
-0.00210688
-0.00380433
-0.000330595
0.00158607
0.00296982
0.00260314
0.00224725
0.00200338
0.00184459
0.00174153
0.00165478
0.00151736
0.00131568
0.00105985
0.000741399
0.00030679
-0.00030799
-0.00127559
-0.00252249
-0.00436947
-0.000467259
0.00167579
0.00348173
0.00314923
0.00274767
0.00244616
0.00224437
0.0021124
0.00199142
0.00181396
0.00156983
0.00126266
0.000874422
0.000354681
-0.000355138
-0.00139124
-0.00274084
-0.00463396
-0.000598772
0.00171919
0.00392365
0.00366309
0.00324734
0.00290511
0.00266558
0.00249693
0.00233898
0.00212013
0.00183068
0.00146203
0.000996018
0.0003973
-0.000391596
-0.0014684
-0.00284136
-0.00469732
-0.000741751
0.00172035
0.00427078
0.00412644
0.00372719
0.00336481
0.00309163
0.00288618
0.00269374
0.00243073
0.00208569
0.00164723
0.00110683
0.000441407
-0.000408108
-0.00150203
-0.0028442
-0.0045938
-0.000912381
0.00160187
0.00451691
0.00452855
0.00417023
0.00380653
0.00351248
0.00327674
0.00304225
0.00272647
0.00231875
0.00180941
0.00120189
0.000469983
-0.000435475
-0.00152986
-0.00281683
-0.00445255
-0.00112908
0.00147266
0.00477775
0.00493043
0.00461343
0.00425263
0.00393799
0.00366281
0.00337396
0.00299766
0.00252846
0.00195834
0.00128731
0.000500246
-0.000432469
-0.00149858
-0.00270189
-0.00422184
-0.00123907
0.00154345
0.00496658
0.00520095
0.00491792
0.00456267
0.00422737
0.00391619
0.00358564
0.0031565
0.00263252
0.00200523
0.00127985
0.000448489
-0.000505076
-0.00156093
-0.00270267
-0.00418864
-0.0014451
0.00153393
0.00506506
0.00525977
0.00504807
0.0047433
0.00441336
0.00408195
0.00371261
0.0032335
0.00265646
0.00197706
0.00119945
0.000323816
-0.0006562
-0.00171287
-0.00283476
-0.00435357
-0.00164672
0.00165672
0.00540217
0.00545067
0.00516464
0.00481596
0.00443281
0.00405679
0.00364454
0.00312409
0.00250903
0.00179462
0.000982606
8.8973e-05
-0.000888855
-0.00192548
-0.00301212
-0.00451623
-0.00181336
0.00130627
0.00537342
0.00549487
0.00516478
0.00475181
0.00429615
0.00385574
0.00337427
0.00279879
0.00213953
0.00138195
0.00054907
-0.000353552
-0.0013174
-0.00232539
-0.00334913
-0.0047129
-0.00181981
0.000695693
0.0047885
0.00510606
0.00483239
0.00440672
0.00390938
0.00341513
0.00287062
0.00224342
0.00153597
0.00075408
-7.89315e-05
-0.000961025
-0.00186001
-0.00276375
-0.00367571
-0.0048819
-0.00159132
5.0085e-05
0.00360552
0.00405549
0.00387751
0.00350509
0.00303751
0.00254599
0.00198632
0.00135642
0.000659242
-8.15601e-05
-0.000852703
-0.00163935
-0.00242683
-0.00320191
-0.00398731
-0.00500697
-0.00104914
-0.000405345
0.00195089
0.00234909
0.00226376
0.0019862
0.00159973
0.00115569
0.000644513
8.77978e-05
-0.000499673
-0.00112148
-0.00176548
-0.00240265
-0.00303088
-0.00364958
-0.0042811
-0.00508377
-0.000196711
-0.000357245
-7.18189e-05
1.67091e-05
-2.60477e-05
-0.000176034
-0.000418827
-0.000716477
-0.00106031
-0.00143618
-0.00184648
-0.0022813
-0.00272388
-0.00316224
-0.00359636
-0.00401615
-0.00445167
-0.00496583
0.000484612
-2.44273e-05
-0.00142403
-0.00167415
-0.00176605
-0.00186836
-0.00200638
-0.00218058
-0.00238228
-0.0026134
-0.00286375
-0.00313219
-0.0034029
-0.00367692
-0.00394808
-0.00421656
-0.0045003
-0.00478395
0.000803177
-7.95467e-05
-0.00224208
-0.00259993
-0.0026874
-0.00275396
-0.00283596
-0.00293999
-0.00306321
-0.00320806
-0.00336603
-0.00353844
-0.0037154
-0.00389591
-0.00407779
-0.00426026
-0.00445372
-0.00461198
0.000963426
-0.000272558
-0.00283051
-0.00316651
-0.00321433
-0.00324056
-0.00328001
-0.00333187
-0.00340166
-0.00348116
-0.00357057
-0.00366504
-0.00376607
-0.00386759
-0.00397701
-0.00408574
-0.00421295
-0.0042795
0.000986287
-0.000555806
-0.0032139
-0.00342338
-0.003391
-0.00337065
-0.00336792
-0.00337984
-0.00340701
-0.00343687
-0.0034724
-0.00351389
-0.00355555
-0.00361099
-0.0036667
-0.00372526
-0.00380485
-0.00379025
0.000900123
-0.000849471
-0.00334744
-0.00337232
-0.00324993
-0.00317714
-0.00313911
-0.00312407
-0.00312215
-0.00312218
-0.00312608
-0.00314276
-0.00316043
-0.00318528
-0.00321487
-0.00324817
-0.0032871
-0.00320955
0.000743793
-0.00104969
-0.00318408
-0.00303582
-0.0028613
-0.00276428
-0.00271281
-0.00268332
-0.00266929
-0.00266119
-0.0026576
-0.00266193
-0.00267102
-0.00268436
-0.00270332
-0.0027227
-0.00275748
-0.00265788
0.000545386
-0.00111546
-0.002764
-0.00248874
-0.00231888
-0.00224541
-0.00221308
-0.00218949
-0.00216786
-0.00215531
-0.00214872
-0.00214819
-0.00215269
-0.00215748
-0.00216334
-0.00217575
-0.0021993
-0.00208446
0.000337868
-0.00109848
-0.00226686
-0.00192212
-0.00175807
-0.00170293
-0.00168145
-0.00166323
-0.00163923
-0.00162864
-0.00161592
-0.00160266
-0.00160491
-0.00159849
-0.00159011
-0.00159387
-0.00160317
-0.00150841
9.09892e-05
-0.000962249
-0.00181208
-0.00153495
-0.00140204
-0.00134194
-0.0012962
-0.00125295
-0.00120371
-0.00116844
-0.00114577
-0.00111497
-0.00109875
-0.00107853
-0.00105841
-0.00105062
-0.00105179
-0.000947571
-0.00070148
-0.00128529
-0.00149142
-0.00108261
-0.000867297
-0.000766654
-0.000708612
-0.000657281
-0.000618647
-0.000570729
-0.000530418
-0.000500055
-0.000467604
-0.000444411
-0.000429943
-0.000423688
-0.000437231
-0.000372496
0.00266738
0.00125702
0.000447936
0.000171216
-2.56908e-05
-0.000179052
-0.000280026
-0.000355738
-0.000426051
-0.000452151
-0.000479552
-0.000494329
-0.000478125
-0.000473739
-0.000476762
-0.000476558
-0.00049984
-0.000508082
-1.10522e-05
0.00106063
0.00163181
0.00192551
0.00188486
0.00173477
0.00159245
0.00135346
0.00105936
0.00076433
0.000462795
0.000204786
1.02696e-05
-0.000127128
-0.000255293
-0.000363158
-0.000467088
-0.000558291
-0.000662325
-0.000806627
-0.000991424
-0.00117232
-0.00131352
-0.00147114
-0.00160891
-0.001729
-0.00184645
-0.00194785
-0.002033
-0.00209425
-0.00214435
-0.00217031
-0.00218251
-0.00217469
-0.00216255
-0.00213257
-0.00209919
-0.00205414
-0.00201341
-0.00196137
-0.00191542
-0.00186662
-0.00182524
-0.00177466
-0.00173532
-0.00169216
-0.00165433
-0.00160775
-0.00157049
-0.00152674
-0.00148733
-0.00144164
-0.0014076
-0.00136898
-0.00133758
-0.00129843
-0.00126512
-0.0012247
-0.00119322
-0.00115621
-0.00112322
-0.0010848
-0.00105517
-0.00102023
-0.00098682
-0.000947508
-0.0009148
-0.000875364
-0.000840382
-0.000800495
-0.000763977
-0.000720366
-0.000682361
-0.000642706
-0.000605945
-0.000563177
-0.000523779
-0.00048252
-0.000444333
-0.000403284
-0.000367912
-0.000329882
-0.000291281
-0.000248439
-0.000210566
-0.000173474
-0.000138703
-0.000100814
-6.24917e-05
-2.7452e-05
7.03782e-06
4.10644e-05
7.49794e-05
0.00010949
0.000140035
0.000176208
0.000209841
0.000239646
0.000269494
0.000294525
0.000320959
0.000347484
0.000366928
0.000388647
0.000415624
0.000431758
0.000447557
0.000467509
0.000481506
0.000498881
0.00051407
0.000523907
0.000530932
0.000536808
0.000542623
0.00054671
0.000552709
0.000560745
0.000566597
0.00056496
0.000562283
0.000561312
0.000557688
0.000547374
0.00052696
0.000522655
0.000518346
0.000492779
0.000474231
0.000462137
0.000452534
0.00043655
0.000425123
0.000411381
0.000398224
0.000397251
0.00038447
0.000366506
0.00035523
0.000332822
0.000300823
0.000278488
0.000276428
0.000273061
0.000237501
0.000219598
0.00022598
0.000222707
0.000198798
0.000193376
0.000206126
0.000187975
0.000158929
0.000153896
0.000155068
0.000159659
0.000161677
0.000134978
0.000132605
0.000140447
0.000133026
0.00013401
0.000124343
0.000120731
0.000124126
0.000130545
0.000131891
0.000114523
0.000118569
0.000137198
0.000134925
0.000139579
0.000148289
0.000173072
0.000205383
0.000196844
0.000248193
0.000334114
0.000426471
0.000499068
0.00409027
0.00540271
0.00572998
0.00577457
0.00553185
0.00502749
0.00440872
0.00371751
0.0029953
0.00227204
0.00157811
0.000947331
0.000395883
-8.97605e-05
-0.000522601
-0.000923721
-0.00130907
-0.00169644
-0.00208949
-0.00248558
-0.00288407
-0.00327111
-0.00361959
-0.00392813
-0.00419451
-0.00441706
-0.00459794
-0.00473556
-0.00482772
-0.0048764
-0.00489255
-0.0048771
-0.00483326
-0.00476595
-0.00468516
-0.00459379
-0.00449699
-0.00439214
-0.00428827
-0.00418054
-0.00407976
-0.00397804
-0.00388204
-0.00378208
-0.00369063
-0.00359646
-0.00350807
-0.00342049
-0.00333573
-0.00324739
-0.00316721
-0.00308652
-0.00301098
-0.00293235
-0.00285659
-0.00277623
-0.00269725
-0.00261622
-0.00254074
-0.00246153
-0.00238683
-0.00230576
-0.00222791
-0.0021449
-0.00206415
-0.00198242
-0.0019027
-0.00181648
-0.00173163
-0.00164573
-0.00156354
-0.00147468
-0.00138555
-0.00129273
-0.00120953
-0.00112473
-0.00104215
-0.000955521
-0.000870858
-0.00078912
-0.000707479
-0.00062627
-0.000548834
-0.000468225
-0.000387229
-0.000309206
-0.00023829
-0.000160197
-8.65641e-05
-1.60667e-05
5.37996e-05
0.000120769
0.000187108
0.000247886
0.000308058
0.000365229
0.000418405
0.000466948
0.000516508
0.000567891
0.000613805
0.000651376
0.00068378
0.000714608
0.000741803
0.000776908
0.000800768
0.000816013
0.000837706
0.000853071
0.000864834
0.000879872
0.000889635
0.000888676
0.000892678
0.000892783
0.000886368
0.000889498
0.000880521
0.000858208
0.000840502
0.000831077
0.000830645
0.000833602
0.000818487
0.000788948
0.00076206
0.000748558
0.000729941
0.000703704
0.000676112
0.000656381
0.000632507
0.000606421
0.000580367
0.000552098
0.0005365
0.000527765
0.000513265
0.000502763
0.00048446
0.00045985
0.000434928
0.00041295
0.000397162
0.000366273
0.000341622
0.000341597
0.000340007
0.000304579
0.000289135
0.000303432
0.000299264
0.000267398
0.000255885
0.000248569
0.0002484
0.000260872
0.000235509
0.0002203
0.000217885
0.000227534
0.000225742
0.000216552
0.000215145
0.000203256
0.000231743
0.000230194
0.000207931
0.00023778
0.000277515
0.000269803
0.000276901
0.000319605
0.000358533
0.000415082
0.000504825
0.000625269
0.000905409
0.00122072
0.00845216
0.00959893
0.00927776
0.00863843
0.00776102
0.0067083
0.00557827
0.00443421
0.00331286
0.00222674
0.00120006
0.000258671
-0.00059827
-0.00138493
-0.00211452
-0.00279732
-0.0034509
-0.00407698
-0.00466588
-0.00521458
-0.00573004
-0.00620087
-0.00660505
-0.0069473
-0.00722839
-0.0074438
-0.00759307
-0.0076843
-0.00771812
-0.00770395
-0.00765255
-0.00756893
-0.00745504
-0.00732357
-0.00717795
-0.0070275
-0.0068759
-0.00672422
-0.00657517
-0.00642774
-0.00628499
-0.00614058
-0.00600238
-0.00586847
-0.00573871
-0.00560656
-0.00547535
-0.00534745
-0.00522045
-0.00509397
-0.00497003
-0.00484598
-0.00472275
-0.00459794
-0.00447143
-0.00434578
-0.00422448
-0.00410462
-0.00398339
-0.00385819
-0.00373557
-0.00360883
-0.00348113
-0.00335157
-0.00322309
-0.00309239
-0.00295999
-0.00282454
-0.00268961
-0.00255544
-0.00242065
-0.00228362
-0.0021464
-0.00200774
-0.001872
-0.00173573
-0.00160188
-0.00146692
-0.00133389
-0.00120062
-0.00106764
-0.000939104
-0.00081287
-0.000687981
-0.000565337
-0.00044555
-0.000328832
-0.00020958
-9.41415e-05
1.89581e-05
0.000130374
0.000235422
0.000331738
0.000424535
0.000517916
0.000603596
0.000685358
0.000762793
0.000836393
0.000905821
0.000968937
0.00102671
0.00108057
0.00112752
0.00116735
0.00121161
0.0012475
0.00127473
0.00130505
0.00132626
0.00133916
0.0013569
0.00137121
0.00136988
0.00136356
0.00135483
0.00134487
0.00133852
0.0013182
0.00129279
0.00127345
0.00125866
0.00125118
0.00123955
0.0012141
0.00117036
0.00112834
0.001108
0.00108661
0.00105206
0.00100403
0.000963643
0.000928304
0.000895512
0.000858831
0.000816599
0.000789511
0.0007705
0.000753338
0.000742952
0.000725808
0.000691461
0.000638287
0.000599713
0.000588827
0.000551766
0.000509775
0.000501432
0.000504199
0.000466027
0.000427637
0.000435344
0.000443356
0.000410759
0.000386917
0.00036861
0.000361692
0.000379431
0.000359688
0.000338063
0.000326854
0.000325525
0.000326624
0.000324199
0.000320542
0.000303136
0.000330633
0.000343172
0.000321139
0.000348999
0.000397571
0.000391793
0.000397954
0.000434013
0.000476243
0.000583453
0.000700566
0.000845157
0.00117184
0.00160078
0.0122328
0.0127169
0.0117421
0.0105021
0.00908137
0.00755467
0.00601159
0.00449818
0.00303823
0.00164612
0.000338846
-0.000873211
-0.00199707
-0.00303553
-0.00398918
-0.00487122
-0.0056938
-0.00645001
-0.00713552
-0.00775357
-0.00830429
-0.00877888
-0.00917007
-0.00948428
-0.00972663
-0.00989918
-0.0100071
-0.0100552
-0.0100497
-0.0100033
-0.00992216
-0.00980896
-0.00967383
-0.00952653
-0.00936986
-0.00920735
-0.00904139
-0.00887425
-0.00870677
-0.00853997
-0.00837279
-0.00820466
-0.00804188
-0.00787993
-0.00771678
-0.00755376
-0.00739258
-0.00723126
-0.00706913
-0.0069065
-0.00674103
-0.00657272
-0.00640354
-0.00623351
-0.00606535
-0.00590143
-0.0057399
-0.00557576
-0.00540673
-0.00523549
-0.00506452
-0.00489169
-0.0047166
-0.00454048
-0.00436381
-0.00418183
-0.00399831
-0.00381472
-0.00363113
-0.00344639
-0.0032596
-0.00307461
-0.00289203
-0.00270748
-0.00251904
-0.00233104
-0.00214549
-0.00196137
-0.00178023
-0.0015962
-0.00141299
-0.00123478
-0.00105987
-0.00088998
-0.00072457
-0.000559806
-0.000396787
-0.000238119
-8.1154e-05
7.44943e-05
0.000226137
0.000370024
0.000500365
0.000627345
0.000754832
0.000870304
0.000981854
0.00109002
0.00118876
0.00127694
0.00135802
0.00143692
0.00151391
0.00158003
0.00163404
0.00168759
0.00173692
0.00177696
0.00181572
0.00184404
0.00185965
0.00187762
0.00189604
0.00189876
0.00188642
0.00187135
0.00185619
0.00183982
0.00181394
0.00179093
0.00177059
0.00174464
0.00171987
0.00168674
0.00165241
0.00160225
0.00154911
0.00151701
0.00148461
0.00143963
0.00137498
0.00131507
0.00126501
0.00122273
0.00117556
0.00112116
0.00108238
0.00104899
0.00101966
0.000998124
0.000975242
0.000932274
0.000858251
0.000802932
0.000792873
0.00075621
0.000700651
0.000675172
0.000673923
0.000638997
0.000582276
0.00057498
0.000589914
0.000561172
0.000527509
0.000497246
0.000479151
0.000498385
0.00048283
0.00046007
0.000444522
0.000431538
0.00043215
0.000439045
0.000433328
0.000415111
0.000436573
0.000464074
0.000451811
0.000462061
0.000504618
0.000506421
0.000520434
0.000546061
0.000597005
0.000759941
0.000900119
0.00106417
0.00141505
0.00182617
0.0149282
0.0147442
0.0131904
0.0114463
0.00959674
0.00770102
0.00583463
0.00403138
0.00230373
0.000669524
-0.000857828
-0.00227347
-0.00358081
-0.00477825
-0.0058727
-0.00687352
-0.00777938
-0.00859089
-0.00931069
-0.00993755
-0.0104757
-0.0109269
-0.0112947
-0.0115867
-0.0118071
-0.0119625
-0.0120563
-0.0120928
-0.0120836
-0.0120367
-0.0119572
-0.0118485
-0.0117228
-0.0115845
-0.0114333
-0.0112712
-0.0111003
-0.0109241
-0.0107461
-0.0105671
-0.0103846
-0.0101991
-0.0100127
-0.00982364
-0.00963341
-0.0094414
-0.00924782
-0.00905267
-0.00885574
-0.00865737
-0.00845575
-0.00825064
-0.00804384
-0.00783598
-0.00762822
-0.00742123
-0.00721369
-0.00700365
-0.00679052
-0.00657524
-0.00635834
-0.00613992
-0.00591956
-0.00569696
-0.00547239
-0.00524391
-0.00501413
-0.00478394
-0.00455235
-0.00431859
-0.00408337
-0.00384916
-0.00361649
-0.00338339
-0.00314785
-0.00291244
-0.00267741
-0.00244363
-0.00221294
-0.00198191
-0.00175188
-0.0015256
-0.00130464
-0.0010885
-0.000876223
-0.000666288
-0.000460187
-0.000259973
-6.12037e-05
0.000134111
0.000322234
0.000501755
0.000670204
0.000833572
0.000993029
0.00113995
0.00127978
0.00141487
0.00153926
0.00165201
0.00175651
0.00185595
0.00194904
0.00203049
0.00210221
0.00216779
0.0022267
0.00227734
0.00232143
0.00235599
0.00237964
0.00239921
0.00241499
0.00241876
0.00240704
0.00238922
0.00236884
0.00234609
0.00231833
0.00229027
0.00226081
0.00222463
0.00218468
0.00213734
0.00209068
0.00203512
0.00197465
0.0019242
0.00187549
0.00181826
0.00174598
0.00167394
0.00160916
0.00155299
0.00149297
0.00143064
0.00137949
0.00133174
0.00128745
0.00124813
0.00120893
0.00115632
0.00108312
0.00102259
0.000992067
0.000952022
0.00089852
0.000858726
0.000837836
0.000804147
0.000753053
0.000728606
0.000725974
0.000700812
0.000666229
0.000631675
0.000609253
0.000613362
0.000599604
0.000580118
0.000564791
0.000547375
0.000542986
0.00054959
0.000544506
0.000534954
0.000544645
0.000573098
0.000578578
0.000576117
0.000600982
0.000617928
0.000645002
0.000672329
0.000739071
0.000909686
0.00106462
0.00125071
0.00158847
0.00196752
0.0165657
0.0158695
0.0138966
0.0117658
0.00957225
0.00738498
0.00526359
0.00323328
0.00130591
-0.000501647
-0.00218067
-0.00373087
-0.00515384
-0.00644556
-0.00761325
-0.0086625
-0.00959655
-0.0104224
-0.0111458
-0.01177
-0.0123001
-0.0127418
-0.0131029
-0.0133901
-0.0136105
-0.0137728
-0.0138748
-0.0139242
-0.0139311
-0.0139026
-0.0138434
-0.0137564
-0.0136493
-0.0135242
-0.0133811
-0.0132255
-0.0130588
-0.0128821
-0.0126992
-0.0125097
-0.012313
-0.0121111
-0.0119045
-0.011692
-0.0114754
-0.0112558
-0.0110327
-0.010806
-0.0105757
-0.0103427
-0.010106
-0.00986587
-0.00962298
-0.00937806
-0.00913133
-0.00888298
-0.00863252
-0.00837932
-0.0081238
-0.00786618
-0.00760606
-0.00734343
-0.00707858
-0.00681094
-0.00654077
-0.0062683
-0.00599413
-0.00571766
-0.0054393
-0.00515879
-0.00487747
-0.00459638
-0.00431569
-0.00403457
-0.00375239
-0.00346992
-0.00318775
-0.00290769
-0.00263045
-0.00235373
-0.00207726
-0.00180415
-0.00153693
-0.00127573
-0.00101902
-0.000765612
-0.000517787
-0.000275663
-3.80136e-05
0.000193567
0.000418167
0.00063443
0.000840568
0.00103834
0.0012271
0.00140337
0.00157157
0.00173252
0.00188116
0.00201792
0.00214532
0.00226447
0.00237415
0.00247153
0.00255834
0.00263685
0.00270585
0.00276468
0.00281355
0.0028532
0.00288241
0.00290339
0.00291665
0.00291948
0.00291021
0.00289226
0.00286691
0.0028384
0.00280518
0.00276943
0.00273092
0.00268565
0.00263372
0.00257608
0.00251662
0.0024525
0.00238252
0.00231675
0.00225265
0.00218198
0.00210237
0.00202166
0.0019435
0.00187284
0.00179971
0.00172651
0.00166264
0.00160221
0.00154386
0.00148867
0.00143366
0.00137212
0.00130036
0.00123515
0.00118624
0.00113859
0.00108532
0.0010366
0.00100114
0.000963501
0.000916821
0.000880865
0.000858773
0.000831805
0.000799639
0.000764269
0.000739039
0.000730313
0.000714563
0.000695332
0.000678891
0.0006612
0.000653712
0.000655667
0.000652212
0.000646989
0.000651473
0.000673401
0.000686981
0.00068719
0.000706652
0.000732676
0.000766996
0.000808101
0.00088627
0.00104164
0.00120737
0.00140805
0.00172147
0.00207674
0.0174275
0.0162977
0.0140436
0.0116272
0.00917629
0.00676875
0.00445545
0.0022643
0.000200821
-0.0017207
-0.00349216
-0.00511408
-0.00659321
-0.00792864
-0.0091262
-0.0101903
-0.0111319
-0.0119668
-0.0126967
-0.0133224
-0.0138549
-0.0143045
-0.0146785
-0.0149818
-0.0152213
-0.0154077
-0.0155347
-0.0156123
-0.0156481
-0.0156513
-0.0156214
-0.0155611
-0.0154758
-0.015369
-0.0152412
-0.0150961
-0.0149341
-0.0147575
-0.0145712
-0.0143724
-0.0141631
-0.0139456
-0.0137199
-0.0134858
-0.0132462
-0.0130009
-0.012749
-0.012492
-0.0122304
-0.0119647
-0.0116944
-0.0114198
-0.0111414
-0.0108598
-0.0105752
-0.0102876
-0.00999657
-0.00970303
-0.00940725
-0.00910862
-0.00880612
-0.00850106
-0.0081937
-0.00788281
-0.00756908
-0.00725358
-0.00693576
-0.00661482
-0.00629201
-0.00596751
-0.00564225
-0.0053167
-0.00499008
-0.00466178
-0.00433271
-0.0040044
-0.00367778
-0.00335321
-0.00303031
-0.00270872
-0.00238914
-0.00207245
-0.00175972
-0.00145331
-0.0011527
-0.000856532
-0.000567359
-0.000285896
-1.20298e-05
0.000255202
0.000515821
0.000768176
0.00100922
0.00123764
0.00145405
0.0016595
0.00185603
0.00204264
0.00221587
0.0023751
0.0025234
0.00266066
0.00278664
0.00290074
0.00300169
0.00309149
0.00317073
0.00323681
0.00329117
0.00333512
0.00336714
0.00338881
0.00340155
0.00340351
0.00339392
0.00337558
0.00334792
0.00331275
0.00327142
0.00322793
0.00318117
0.00312776
0.00306603
0.00299687
0.00292516
0.00285089
0.00277134
0.00269189
0.00261299
0.00252971
0.00244174
0.00235421
0.00226553
0.00217999
0.00209436
0.00200894
0.00193155
0.0018581
0.00178519
0.0017167
0.00165086
0.00158139
0.00150634
0.00143487
0.00137429
0.00131846
0.00126162
0.00120603
0.00116054
0.00111724
0.0010687
0.00102381
0.000990017
0.000959274
0.000926429
0.000891586
0.000863958
0.000846195
0.000826664
0.000804911
0.000787282
0.000770572
0.000761582
0.000760366
0.000757022
0.000753966
0.000756292
0.000769993
0.000784017
0.000792461
0.000815626
0.000847469
0.00088622
0.000939423
0.00102333
0.00116655
0.00133791
0.00154409
0.00183201
0.00216468
0.0177659
0.0162711
0.0138136
0.0111934
0.00853679
0.00596476
0.00351957
0.00122537
-0.00091251
-0.00289295
-0.00470893
-0.00636006
-0.00786269
-0.00921169
-0.0104144
-0.0114821
-0.0124274
-0.0132694
-0.0140105
-0.0146539
-0.0152077
-0.0156798
-0.0160796
-0.0164187
-0.0166972
-0.01692
-0.0170854
-0.0172032
-0.0172798
-0.0173208
-0.0173225
-0.0172896
-0.0172275
-0.0171399
-0.0170256
-0.0168886
-0.0167302
-0.0165547
-0.0163648
-0.0161569
-0.0159343
-0.0157006
-0.0154568
-0.0152027
-0.0149419
-0.0146725
-0.0143942
-0.0141092
-0.0138176
-0.0135201
-0.013217
-0.0129086
-0.0125958
-0.0122787
-0.0119574
-0.0116322
-0.0113031
-0.0109717
-0.0106367
-0.010298
-0.00995543
-0.0096107
-0.00926243
-0.00891049
-0.0085558
-0.00819842
-0.00783798
-0.0074752
-0.00711049
-0.00674376
-0.00637571
-0.00600635
-0.00563503
-0.00526222
-0.00488906
-0.00451697
-0.00414665
-0.00377768
-0.0034094
-0.0030443
-0.00268356
-0.00232563
-0.00197103
-0.00162193
-0.00127863
-0.000941595
-0.00061249
-0.000293302
1.70115e-05
0.000320756
0.000615539
0.000899706
0.00117164
0.00143054
0.00167747
0.00191238
0.00213494
0.00234501
0.00254087
0.00272139
0.00289019
0.00304577
0.00318692
0.00331519
0.00342956
0.00353029
0.00361823
0.00369142
0.00375088
0.00379734
0.0038321
0.00385642
0.00386952
0.00386994
0.00385761
0.00383628
0.00380648
0.00376605
0.00371833
0.00366617
0.00360922
0.00354787
0.0034786
0.00339991
0.00331619
0.00322884
0.00313921
0.00304818
0.00295633
0.00286154
0.00276295
0.00266601
0.00256836
0.00247011
0.00237414
0.00227866
0.00218634
0.00209782
0.00201113
0.00193166
0.00185784
0.00178098
0.00170081
0.00162297
0.00155247
0.00148746
0.00142547
0.00136553
0.00131192
0.00126216
0.00120951
0.00115963
0.00112045
0.00108436
0.00104584
0.00101096
0.000982416
0.000957871
0.000933661
0.00090857
0.000889855
0.000874473
0.000863998
0.000861631
0.000857533
0.000855329
0.000857375
0.000865188
0.000877706
0.000892466
0.000920165
0.000956833
0.0010016
0.00106151
0.00114795
0.00128583
0.001459
0.00166368
0.00192755
0.0022366
0.0177909
0.0159453
0.0133237
0.0105449
0.00774491
0.0050779
0.00256104
0.000205669
-0.00197058
-0.00397223
-0.00579946
-0.00746363
-0.0089758
-0.0103196
-0.0115178
-0.0125947
-0.0135544
-0.0144121
-0.0151699
-0.0158352
-0.0164189
-0.016931
-0.0173809
-0.0177707
-0.0180965
-0.0183639
-0.0185761
-0.018738
-0.0188519
-0.0189247
-0.0189575
-0.0189502
-0.0189092
-0.0188378
-0.018735
-0.0186053
-0.0184503
-0.0182755
-0.0180798
-0.0178604
-0.0176257
-0.0173775
-0.0171174
-0.0168444
-0.0165613
-0.016267
-0.0159623
-0.0156496
-0.0153286
-0.0150006
-0.0146662
-0.0143258
-0.01398
-0.0136288
-0.0132724
-0.0129119
-0.0125476
-0.0121797
-0.0118067
-0.0114304
-0.0110506
-0.0106675
-0.01028
-0.00988942
-0.00949596
-0.00909915
-0.00869844
-0.00829522
-0.00788994
-0.00748188
-0.00707171
-0.00665974
-0.00624663
-0.0058329
-0.00541828
-0.00500372
-0.00459061
-0.00417904
-0.00376769
-0.00335961
-0.00295729
-0.00255974
-0.00216638
-0.00177801
-0.00139622
-0.00102186
-0.000655008
-0.00029804
4.90005e-05
0.000386912
0.000714284
0.00102938
0.0013313
0.00162003
0.00189638
0.00215866
0.00240511
0.00263699
0.00285444
0.00305668
0.00324432
0.00341669
0.0035729
0.00371405
0.00383925
0.00394992
0.00404552
0.00412565
0.00419003
0.00423941
0.00427624
0.00430197
0.00431418
0.00431259
0.00429819
0.00427469
0.00424157
0.0041956
0.00414131
0.00408065
0.00401365
0.00394344
0.00386653
0.0037813
0.00368689
0.00358599
0.00348628
0.00338645
0.00328198
0.00317466
0.00306521
0.00295675
0.00284898
0.00274097
0.00263532
0.0025302
0.0024251
0.00232397
0.00222553
0.00213426
0.00205067
0.00196646
0.00188138
0.00179877
0.00171985
0.00164519
0.00157573
0.00151198
0.00145232
0.00139687
0.00134077
0.00128843
0.00124485
0.00120389
0.00116092
0.00112333
0.00109208
0.00106241
0.00103523
0.0010084
0.000986778
0.000971405
0.000959189
0.000955927
0.000951789
0.00094943
0.000952053
0.000957957
0.000971132
0.000989387
0.0010186
0.00105855
0.00110961
0.00117494
0.00126445
0.00139786
0.0015667
0.00176545
0.00200914
0.00229606
0.0176347
0.0155136
0.0127852
0.00988101
0.00694244
0.00417254
0.00161025
-0.000751731
-0.00292327
-0.00491844
-0.00674533
-0.00840796
-0.00990673
-0.0112453
-0.0124525
-0.0135453
-0.014524
-0.0154086
-0.016205
-0.0169167
-0.0175569
-0.0181305
-0.0186355
-0.0190732
-0.0194436
-0.0197566
-0.0200178
-0.0202225
-0.0203725
-0.020477
-0.0205371
-0.0205492
-0.020526
-0.0204684
-0.0203732
-0.0202478
-0.0200935
-0.0199142
-0.0197107
-0.0194821
-0.0192359
-0.0189724
-0.0186934
-0.0183997
-0.0180936
-0.0177745
-0.017444
-0.0171041
-0.0167549
-0.016398
-0.0160337
-0.0156625
-0.015285
-0.0149016
-0.0145127
-0.0141195
-0.0137216
-0.0133187
-0.0129111
-0.0125001
-0.0120843
-0.0116641
-0.0112399
-0.0108124
-0.0103816
-0.00994751
-0.00950919
-0.00906773
-0.00862305
-0.00817547
-0.00772624
-0.00727528
-0.00682264
-0.00636848
-0.00591437
-0.00546101
-0.00500742
-0.00455432
-0.00410279
-0.00365527
-0.0032133
-0.0027768
-0.00234524
-0.00191863
-0.00150021
-0.00109075
-0.000689224
-0.000296597
8.46867e-05
0.000453838
0.000812297
0.00115874
0.00149104
0.00180726
0.00210824
0.00239443
0.00266445
0.00291823
0.00315663
0.00337853
0.00358312
0.00377025
0.00393999
0.00409294
0.00422781
0.00434684
0.00444958
0.00453637
0.00460676
0.00466035
0.00469803
0.00472192
0.00473132
0.00472828
0.0047129
0.00468703
0.00464941
0.00459891
0.00453863
0.00446982
0.00439359
0.00431366
0.00422806
0.0041347
0.00403138
0.00392081
0.00381135
0.00370072
0.00358325
0.00346535
0.00334743
0.00322744
0.00310748
0.00299042
0.00287521
0.00275989
0.00264519
0.00253502
0.00242622
0.00232353
0.00222893
0.00213669
0.00204698
0.00196058
0.00187497
0.0017926
0.00171651
0.00164771
0.00158228
0.00152019
0.00146078
0.00140694
0.00135894
0.00131402
0.00126984
0.00122804
0.0011909
0.00115733
0.00113075
0.00110457
0.00107843
0.001061
0.00104723
0.00104242
0.00103883
0.00103736
0.00104072
0.00104655
0.00106203
0.00108257
0.00111057
0.00115233
0.00120777
0.00127938
0.00137295
0.00149998
0.00166065
0.00185168
0.00208031
0.00234818
0.0174115
0.0150694
0.0122582
0.00925765
0.00621026
0.00337239
0.000791191
-0.00156925
-0.0037324
-0.00572518
-0.00754406
-0.00919097
-0.0106872
-0.0120455
-0.0132806
-0.0144058
-0.0154327
-0.0163712
-0.0172142
-0.0179732
-0.0186691
-0.0193039
-0.019862
-0.020349
-0.0207717
-0.0211344
-0.0214344
-0.0216661
-0.0218438
-0.0219739
-0.0220545
-0.0220852
-0.0220758
-0.0220258
-0.0219341
-0.0218078
-0.0216512
-0.0214655
-0.0212514
-0.0210117
-0.0207517
-0.0204711
-0.0201728
-0.0198578
-0.0195288
-0.0191855
-0.0188296
-0.0184629
-0.0180868
-0.0177023
-0.0173095
-0.0169091
-0.0165019
-0.0160886
-0.0156696
-0.0152452
-0.014815
-0.0143802
-0.0139405
-0.0134962
-0.013046
-0.0125918
-0.0121339
-0.0116717
-0.0112055
-0.0107357
-0.0102622
-0.00978478
-0.00930318
-0.00881959
-0.00833402
-0.00784606
-0.00735544
-0.00686342
-0.00637226
-0.00588168
-0.00539063
-0.00489948
-0.00441137
-0.0039277
-0.00344775
-0.00297294
-0.0025045
-0.00204301
-0.00159045
-0.00114655
-0.000710987
-0.000284689
0.000128453
0.00052757
0.000913751
0.00128724
0.00164666
0.00198918
0.00231424
0.00262269
0.00291463
0.00318839
0.0034444
0.00368278
0.00390328
0.00410318
0.00428455
0.0044483
0.00459316
0.00472027
0.00482981
0.00492173
0.00499639
0.00505284
0.00509197
0.00511472
0.00512195
0.0051174
0.00510125
0.00507045
0.0050257
0.00497085
0.00490623
0.00483058
0.00474653
0.00465731
0.00456224
0.00445825
0.00434705
0.00422999
0.00410995
0.00398658
0.00385882
0.00373272
0.00360638
0.00347511
0.0033434
0.00321694
0.00309211
0.00296717
0.00284398
0.00272582
0.00260909
0.00249783
0.00239329
0.00229258
0.00219738
0.0021061
0.00201372
0.00192564
0.00184699
0.00177341
0.00170104
0.00163239
0.00156871
0.00151242
0.00146179
0.00141407
0.00136812
0.00132149
0.00127917
0.00124345
0.00121694
0.00119176
0.00116327
0.00114398
0.00112804
0.00112142
0.00111826
0.00111803
0.00112231
0.00112881
0.00114692
0.00116944
0.00119674
0.00123877
0.00129707
0.00137336
0.00146961
0.00158979
0.00174348
0.00192664
0.00214222
0.00239299
0.0173625
0.0147546
0.0117226
0.00854911
0.00545378
0.0026275
6.70496e-05
-0.00227385
-0.00442325
-0.00639787
-0.00820573
-0.00986978
-0.0113891
-0.012774
-0.01405
-0.0152142
-0.0162892
-0.0172847
-0.0181873
-0.0190151
-0.0197756
-0.0204652
-0.0210753
-0.0216115
-0.0220744
-0.0224713
-0.0228044
-0.0230687
-0.0232713