/*--------------------------------*- C++ -*----------------------------------*\
  =========                 |
  \\      /  F ield         | OpenFOAM: The Open Source CFD Toolbox
   \\    /   O peration     | Website:  https://openfoam.org
    \\  /    A nd           | Version:  8
     \\/     M anipulation  |
\*---------------------------------------------------------------------------*/
FoamFile
{
    version     2.0;
    format      ascii;
    class       volScalarField;
    location    "100";
    object      vpod_0;
}
// * * * * * * * * * * * * * * * * * * * * * * * * * * * * * * * * * * * * * //

dimensions      [0 1 -1 0 0 0 0];

internalField   nonuniform List<scalar> 
12225
(
0.0166428
0.0139419
0.00821344
0.0043389
0.00212691
0.00093782
0.000321662
3.20432e-07
-0.000172154
-0.000265168
-0.000316849
-0.000356994
-0.000394286
-0.000439887
-0.000538835
-0.000655119
-0.000907499
-0.0012343
-0.00427538
-0.0061621
-0.0049137
-0.00351138
-0.00255497
-0.00193496
-0.00152241
-0.00124124
-0.00105064
-0.000919463
-0.000831259
-0.000778177
-0.000758263
-0.000788033
-0.000887773
-0.00111892
-0.00179137
-0.00297931
-0.00110173
-0.00101825
-0.00061538
-0.000613887
-0.000776968
-0.000902598
-0.000959943
-0.000983539
-0.000998486
-0.00101245
-0.0010306
-0.00106051
-0.00111113
-0.00120516
-0.00136428
-0.00169953
-0.00216954
-0.00361021
-0.000214204
-0.000472622
-0.000635237
-0.000855502
-0.00102811
-0.00111126
-0.00113365
-0.00113859
-0.0011481
-0.0011663
-0.00119626
-0.00124472
-0.00132081
-0.00144632
-0.00165013
-0.00199295
-0.0025352
-0.00346589
-0.00014319
-0.000545066
-0.000733044
-0.000887286
-0.00100346
-0.00107143
-0.00110218
-0.00112279
-0.00114971
-0.00118717
-0.00123826
-0.00131047
-0.0014138
-0.0015688
-0.0017998
-0.00214813
-0.00264051
-0.00335446
-0.000184528
-0.00052875
-0.000670944
-0.000805116
-0.000920855
-0.00100449
-0.00105629
-0.00109598
-0.00114
-0.00119449
-0.00126346
-0.00135494
-0.00147913
-0.00165362
-0.00189754
-0.00223516
-0.00267893
-0.00325615
-0.000186298
-0.000450403
-0.000574411
-0.000719771
-0.00084767
-0.000944878
-0.00101214
-0.00106669
-0.00112407
-0.00119258
-0.00127663
-0.00138354
-0.00152293
-0.00170899
-0.00195559
-0.00227503
-0.00266899
-0.00313672
-0.000174641
-0.000379649
-0.000490467
-0.000644532
-0.000780815
-0.000886949
-0.00096594
-0.00103284
-0.00110263
-0.00118378
-0.00128068
-0.00139962
-0.00154959
-0.00174118
-0.00198324
-0.00228008
-0.00262579
-0.00301126
-0.000165308
-0.000325443
-0.000417275
-0.000571983
-0.000713318
-0.000827123
-0.000916069
-0.000994184
-0.0010755
-0.00116777
-0.00127528
-0.00140335
-0.00156013
-0.00175275
-0.00198569
-0.00225778
-0.00256062
-0.00288528
-0.000159209
-0.000284709
-0.000351554
-0.000498637
-0.00064191
-0.000763063
-0.000861342
-0.000949879
-0.00104116
-0.00114325
-0.0012597
-0.00139502
-0.00155581
-0.0017459
-0.00196659
-0.00221391
-0.00247927
-0.00275679
-0.000155344
-0.000250922
-0.000287051
-0.000424251
-0.000567813
-0.000695225
-0.000801918
-0.000899473
-0.000999418
-0.00110969
-0.00123302
-0.00137303
-0.00153391
-0.00171794
-0.00192389
-0.0021461
-0.00237701
-0.00261582
-0.000146652
-0.000212928
-0.000228954
-0.000364168
-0.000509985
-0.000639982
-0.000750571
-0.000853213
-0.000958773
-0.00107434
-0.00120144
-0.00134284
-0.00150065
-0.0016764
-0.00186672
-0.00206625
-0.00226836
-0.00247913
-0.000141812
-0.000185174
-0.000181663
-0.000315917
-0.00045788
-0.000584938
-0.000696236
-0.000802076
-0.000911718
-0.00103062
-0.00116001
-0.00130108
-0.00145479
-0.00162113
-0.00179613
-0.0019754
-0.00215302
-0.00234224
-0.000136667
-0.000153154
-0.00011957
-0.000249865
-0.000391471
-0.000519079
-0.000632099
-0.000739977
-0.000851029
-0.000970155
-0.00109792
-0.00123448
-0.0013797
-0.00153162
-0.0016873
-0.00184263
-0.00199355
-0.00215723
-0.000131817
-0.000139405
-7.3689e-05
-0.000186819
-0.000322031
-0.00044825
-0.000560878
-0.000666783
-0.000774825
-0.000889584
-0.00101071
-0.00113781
-0.00126925
-0.00140316
-0.00153633
-0.00166463
-0.0017876
-0.00192178
-0.000122412
-0.000135563
-5.12584e-05
-0.000136561
-0.000252108
-0.000368564
-0.000476481
-0.000577176
-0.000678743
-0.000784674
-0.000894219
-0.00100574
-0.00111753
-0.00122789
-0.00133519
-0.00143575
-0.00152885
-0.00163142
-0.000103693
-0.000130451
-4.8129e-05
-0.000103766
-0.000189106
-0.000283416
-0.00037714
-0.000466784
-0.00055656
-0.000647755
-0.00073956
-0.000830161
-0.000917857
-0.001001
-0.0010786
-0.00114819
-0.00121003
-0.00127916
-7.07064e-05
-0.000111944
-6.00834e-05
-9.53246e-05
-0.000150394
-0.000214316
-0.000281816
-0.000348181
-0.000413957
-0.000479606
-0.000544337
-0.000605765
-0.000662716
-0.000714969
-0.000760765
-0.000798297
-0.00082903
-0.000865292
-1.6615e-05
-6.27627e-05
-7.38973e-05
-9.2707e-05
-0.000115487
-0.000142988
-0.000174477
-0.000207662
-0.000240684
-0.000273086
-0.000303273
-0.000329955
-0.000352893
-0.000371559
-0.00038479
-0.000391673
-0.0003931
-0.000395212
3.27949e-05
2.33595e-06
-5.28764e-05
-5.52991e-05
-5.21754e-05
-5.03308e-05
-5.31911e-05
-5.95288e-05
-6.73524e-05
-7.43015e-05
-7.95099e-05
-8.18175e-05
-8.09979e-05
-7.6078e-05
-6.65084e-05
-5.11199e-05
-3.15422e-05
-9.00133e-06
6.2419e-05
4.36216e-05
-1.92308e-05
-3.70864e-06
1.95484e-05
4.15822e-05
5.73803e-05
6.76487e-05
7.53258e-05
8.36046e-05
9.32306e-05
0.000105407
0.000120457
0.000139251
0.000162016
0.000189161
0.000219818
0.000254411
8.35679e-05
7.76967e-05
2.46652e-05
6.28977e-05
0.000107183
0.00014652
0.000175948
0.000196753
0.000214159
0.000231605
0.000250182
0.000270243
0.000292523
0.000317539
0.000346407
0.000378292
0.000413891
0.000454016
9.78116e-05
0.000107935
7.96156e-05
0.000142014
0.000204575
0.000257246
0.000294273
0.000320132
0.000341435
0.000362364
0.000383652
0.000405997
0.000429487
0.000456152
0.000485741
0.000517704
0.00055303
0.000594758
0.000105094
0.000146728
0.00015142
0.000230076
0.000304327
0.000365493
0.000406981
0.000434789
0.000456826
0.000477867
0.000497967
0.000518757
0.000540231
0.000563921
0.000590123
0.000618906
0.00064959
0.000687979
9.46427e-05
0.000206986
0.000259956
0.000342759
0.000413379
0.000471312
0.000510348
0.000536515
0.000557429
0.000576817
0.000594501
0.000611931
0.000629487
0.000648372
0.000669031
0.000691377
0.000715523
0.000746879
2.91342e-05
0.000224288
0.000363535
0.000479452
0.000552469
0.000596451
0.000618131
0.00063086
0.000642566
0.000654005
0.000665072
0.000676863
0.000688345
0.000700785
0.000714608
0.000729181
0.0007455
0.000769997
-1.10555e-05
9.94181e-05
0.00027002
0.000494787
0.000660762
0.000746089
0.000773256
0.000777127
0.000774522
0.000769258
0.000764496
0.000760434
0.000755916
0.000753208
0.000752083
0.000751379
0.000753901
0.000764724
0.000589122
0.000374736
-5.68839e-06
-4.44624e-06
0.000176269
0.00035062
0.000468222
0.000546233
0.000598568
0.000632533
0.000655674
0.000669675
0.000676498
0.000680085
0.000681555
0.000679941
0.000680291
0.00068938
0.00343316
0.00541318
0.0046227
0.00348899
0.0026308
0.00202959
0.00160123
0.00129742
0.00108019
0.00092076
0.000800459
0.000705904
0.000630823
0.000569538
0.000518171
0.000474697
0.000439762
0.000426181
-0.0129335
-0.0114764
-0.00729101
-0.00425101
-0.00238265
-0.00129326
-0.000667494
-0.000305544
-9.29728e-05
3.43129e-05
0.000111375
0.000158345
0.000188221
0.000206777
0.000218922
0.000227091
0.000232336
0.000261422
0.00148458
0.00188245
0.00173057
0.00141657
0.00106255
0.000668966
0.000240397
-0.000213429
-0.000588817
-0.000875206
-0.00112711
-0.00132529
-0.00143971
-0.00149419
-0.0015462
-0.00157293
-0.00160652
-0.00163796
-0.00168147
-0.00176986
-0.00189731
-0.00201081
-0.00206823
-0.00213816
-0.00218147
-0.0022032
-0.00220971
-0.0021994
-0.00216837
-0.00211701
-0.00204478
-0.00195688
-0.0018547
-0.00174331
-0.00162341
-0.00150186
-0.00137889
-0.0012592
-0.00114021
-0.00102828
-0.000920139
-0.000818841
-0.00072151
-0.000633478
-0.000548616
-0.000470736
-0.000396374
-0.00033024
-0.000265735
-0.000207838
-0.000151501
-0.000101371
-4.99058e-05
-3.93306e-06
4.22703e-05
8.36071e-05
0.000126437
0.000163405
0.000202127
0.000237813
0.000274334
0.00030709
0.000343122
0.000374946
0.000407519
0.00043563
0.000467356
0.000494128
0.000523227
0.000548933
0.00057702
0.00060071
0.000627265
0.000650531
0.000676294
0.000698409
0.000723677
0.000745608
0.00077093
0.000792125
0.000815713
0.000837022
0.000859392
0.000878527
0.000899671
0.000917805
0.000938087
0.000956458
0.000974511
0.000990075
0.00100249
0.00101323
0.00102343
0.00103263
0.00104064
0.00104802
0.00105404
0.00105935
0.00106332
0.00106681
0.00106952
0.00107073
0.00107077
0.00106964
0.00106803
0.00106456
0.0010618
0.00105811
0.00105342
0.00104821
0.00104255
0.0010338
0.00102544
0.00101709
0.0010065
0.000993165
0.000982334
0.000954434
0.000928751
0.000915763
0.000900625
0.000886623
0.000853666
0.000819406
0.000817959
0.000800669
0.000774677
0.000768056
0.000719341
0.000673506
0.000661287
0.000649031
0.000623179
0.000581615
0.000554704
0.000553793
0.000555314
0.000522256
0.000489498
0.000473429
0.000449995
0.000416441
0.000397348
0.000386429
0.000369879
0.000367834
0.000320112
0.000275603
0.000278772
0.000291479
0.000298856
0.000285556
0.000250583
0.000225485
0.000217873
0.000197241
0.000192329
0.00018375
0.000180397
0.000172431
0.000174817
0.000178271
0.000154405
0.000147391
0.000141722
0.000121282
0.000117313
0.000116716
0.000101758
9.55442e-05
9.93435e-05
8.5303e-05
6.46713e-05
4.3293e-05
3.10017e-06
-4.26867e-05
-0.000102804
-0.000209836
-0.000505188
-0.000848534
0.00397302
0.00370182
0.00243744
0.00121998
0.000128527
-0.000840902
-0.00170435
-0.00245976
-0.00310471
-0.00364185
-0.00406711
-0.004397
-0.00464742
-0.00484229
-0.00498822
-0.00510708
-0.00521348
-0.00532843
-0.00543865
-0.00554955
-0.00566251
-0.00575756
-0.0058055
-0.00580898
-0.00576821
-0.00568279
-0.00555402
-0.00538415
-0.00517684
-0.00493793
-0.00467335
-0.00439096
-0.0040968
-0.003798
-0.0034992
-0.00320619
-0.00292171
-0.00264872
-0.00238751
-0.0021411
-0.0019089
-0.00169131
-0.00148552
-0.00129407
-0.00111478
-0.000948613
-0.000791699
-0.000645818
-0.000508234
-0.000380552
-0.00025968
-0.000147461
-3.88861e-05
6.2611e-05
0.000160515
0.000253712
0.000344448
0.00042975
0.000512411
0.000590742
0.000668102
0.000741666
0.000814956
0.000883914
0.000951483
0.00101525
0.00107884
0.00113843
0.00119828
0.00125489
0.0013115
0.00136461
0.00141839
0.00146852
0.00151847
0.00156587
0.00161424
0.00165962
0.00170571
0.00174829
0.00179111
0.00183066
0.0018703
0.00190649
0.00194262
0.00197491
0.00200685
0.00203628
0.00206367
0.00208756
0.00210694
0.0021227
0.00213578
0.00214624
0.00215456
0.00216128
0.00216494
0.00216603
0.00216507
0.00216202
0.00215589
0.00214701
0.002136
0.00212254
0.00210738
0.00209037
0.00207144
0.00205133
0.00203041
0.00200715
0.00198286
0.00195651
0.00192858
0.00189918
0.00186891
0.00183582
0.00180274
0.00177024
0.00173382
0.00169364
0.00165289
0.00161253
0.0015735
0.00153126
0.00148578
0.00144022
0.00139584
0.00135259
0.00131536
0.00127572
0.00123437
0.00119178
0.0011517
0.00111366
0.00107347
0.00103129
0.000988107
0.000950393
0.000915597
0.000883482
0.000852713
0.000821838
0.000789292
0.000755453
0.000722533
0.000691012
0.000668611
0.000644734
0.000614466
0.000582497
0.000553204
0.000528792
0.000509338
0.000492906
0.000477136
0.000459303
0.000440497
0.000423223
0.000405798
0.000390687
0.000372436
0.000354972
0.000340712
0.000327136
0.000316627
0.000304773
0.000291204
0.000276555
0.000260894
0.000243102
0.000221604
0.000195093
0.000163256
0.00012403
6.62005e-05
-1.9211e-05
-0.000153606
-0.000370097
-0.000799171
-0.00145094
0.00466513
0.00346662
0.00153323
-0.0002347
-0.00176951
-0.00308857
-0.00422046
-0.00518712
-0.00600791
-0.00669818
-0.00726983
-0.00773583
-0.00811059
-0.00840951
-0.00864583
-0.00883403
-0.00898502
-0.00910446
-0.00919176
-0.00924606
-0.00926131
-0.0092257
-0.00913051
-0.00897615
-0.00876381
-0.00849636
-0.00817838
-0.00781657
-0.00741863
-0.00699364
-0.00655051
-0.00609781
-0.00564316
-0.00519353
-0.00475407
-0.00432929
-0.00392189
-0.00353389
-0.00316565
-0.00281803
-0.0024906
-0.00218286
-0.00189354
-0.00162244
-0.00136794
-0.00112949
-0.000905644
-0.000695276
-0.000496514
-0.000309201
-0.000131694
3.63314e-05
0.000196693
0.000349298
0.000495005
0.000634213
0.000768522
0.000898022
0.00102313
0.00114295
0.00125962
0.00137209
0.00148145
0.00158692
0.00168922
0.00178767
0.00188397
0.00197684
0.00206762
0.00215521
0.00224123
0.0023241
0.00240523
0.00248331
0.00255932
0.00263257
0.00270475
0.00277454
0.00284286
0.00290814
0.00297155
0.00303134
0.00308901
0.00314282
0.00319431
0.00324194
0.00328698
0.00332842
0.0033658
0.00339855
0.00342598
0.0034481
0.00346563
0.00347934
0.00348924
0.00349486
0.00349692
0.00349505
0.00348918
0.00347978
0.0034664
0.00344901
0.00342758
0.00340245
0.00337398
0.00334358
0.00330976
0.00327348
0.00323551
0.00319438
0.00315074
0.00310536
0.00305702
0.00300592
0.00295339
0.00289875
0.00284229
0.00278399
0.00272292
0.00266138
0.00259932
0.00253595
0.00247076
0.00240358
0.00233711
0.00227026
0.00220427
0.00214081
0.00207455
0.00200682
0.00194146
0.00187888
0.0018164
0.00175308
0.00169028
0.0016303
0.00157453
0.00151867
0.00146295
0.00141024
0.00135867
0.00130657
0.00125568
0.00120865
0.00116382
0.00111805
0.00107412
0.00103256
0.000991233
0.000949872
0.000914527
0.000883742
0.000849386
0.000813855
0.000784358
0.00075552
0.000728111
0.000702773
0.000674465
0.000649559
0.000627215
0.000605665
0.000583096
0.000561051
0.000539687
0.000516973
0.00049739
0.000473664
0.00044664
0.000421579
0.000391881
0.000351165
0.000305784
0.000248445
0.000166975
5.55197e-05
-0.000118759
-0.00038489
-0.00086729
-0.00167696
0.00321764
0.00126385
-0.000868504
-0.00278089
-0.00444592
-0.0058799
-0.00710817
-0.00815653
-0.00904693
-0.00979718
-0.0104222
-0.0109355
-0.0113497
-0.0116767
-0.0119269
-0.0121094
-0.0122303
-0.0122917
-0.0122941
-0.0122363
-0.0121155
-0.0119284
-0.0116739
-0.0113552
-0.0109774
-0.0105474
-0.0100735
-0.00956456
-0.00902949
-0.00847757
-0.0079171
-0.00735539
-0.00679917
-0.00625397
-0.00572382
-0.00521196
-0.00472048
-0.00425077
-0.00380334
-0.00337848
-0.00297578
-0.00259462
-0.00223421
-0.00189362
-0.0015717
-0.00126747
-0.000979878
-0.00070768
-0.00044959
-0.00020491
2.75505e-05
0.000248672
0.00045979
0.000661738
0.000855101
0.00104039
0.00121861
0.00139034
0.00155638
0.00171642
0.00187137
0.0020215
0.00216693
0.00230781
0.00244452
0.00257716
0.0027062
0.00283155
0.00295375
0.00307263
0.00318859
0.003301
0.00341036
0.00351659
0.00361994
0.00372008
0.00381763
0.00391225
0.00400387
0.00409214
0.00417683
0.00425736
0.00433411
0.00440622
0.00447409
0.00453748
0.0045964
0.00465018
0.00469898
0.00474194
0.00477853
0.00480863
0.00483248
0.00485087
0.00486395
0.00487094
0.00487305
0.0048698
0.00486093
0.00484679
0.00482739
0.00480284
0.00477275
0.00473765
0.00469779
0.00465471
0.00460742
0.00455669
0.0045026
0.00444486
0.00438331
0.00431926
0.00425148
0.00418027
0.00410594
0.00402927
0.00394988
0.00386821
0.00378392
0.00369874
0.00361145
0.00352217
0.00343146
0.00333962
0.00324836
0.0031561
0.0030637
0.00297308
0.002881
0.00278903
0.00269848
0.00261038
0.00252259
0.00243542
0.0023496
0.00226695
0.00218769
0.00210916
0.00203258
0.00195941
0.00188813
0.00181702
0.00174702
0.00168158
0.00161924
0.00155574
0.00149486
0.0014379
0.0013831
0.00132913
0.00127919
0.00123416
0.00118803
0.00114116
0.00110008
0.00106027
0.00102209
0.000986927
0.000950034
0.000916609
0.000885232
0.0008542
0.000823797
0.00079413
0.000764365
0.000734404
0.00070635
0.000675525
0.000640402
0.000605042
0.000565691
0.000514427
0.000454593
0.000377746
0.000274797
0.000136968
-7.30722e-05
-0.000381563
-0.000886991
-0.00168826
0.000260557
-0.00195363
-0.00405371
-0.00592671
-0.0075545
-0.0089527
-0.010147
-0.0111638
-0.0120256
-0.0127499
-0.0133504
-0.0138385
-0.0142239
-0.0145148
-0.0147178
-0.0148385
-0.0148802
-0.0148454
-0.0147359
-0.0145528
-0.0142978
-0.0139736
-0.0135841
-0.0131352
-0.012634
-0.0120888
-0.0115081
-0.0109004
-0.0102744
-0.00963781
-0.00899773
-0.00836028
-0.00773116
-0.00711481
-0.0065145
-0.005933
-0.00537239
-0.00483398
-0.00431848
-0.00382616
-0.00335679
-0.00290997
-0.00248501
-0.00208117
-0.00169767
-0.00133346
-0.000987483
-0.000658703
-0.000345962
-4.82957e-05
0.000235415
0.00050619
0.000765064
0.00101294
0.00125064
0.0014789
0.00169851
0.0019102
0.00211463
0.00231216
0.00250338
0.00268891
0.0028689
0.00304356
0.00321322
0.00337816
0.00353861
0.00369479
0.00384707
0.00399553
0.00414024
0.00428102
0.00441793
0.004551
0.0046804
0.00480599
0.00492801
0.00504614
0.00516016
0.00526989
0.005375
0.00547507
0.00556991
0.00565925
0.00574299
0.00582095
0.00589298
0.00595874
0.00601818
0.00607067
0.00611558
0.00615302
0.00618289
0.00620578
0.0062216
0.00623016
0.00623206
0.00622732
0.00621554
0.00619697
0.00617175
0.00613974
0.00610114
0.0060563
0.00600603
0.00595067
0.00589031
0.00582525
0.00575575
0.00568151
0.00560274
0.00551993
0.00543288
0.0053417
0.00524664
0.00514831
0.00504689
0.00494268
0.00483568
0.00472642
0.00461475
0.00450086
0.00438534
0.00426842
0.00415137
0.00403362
0.00391579
0.00379902
0.00368214
0.00356556
0.00345008
0.0033366
0.00322434
0.00311362
0.00300474
0.00289905
0.00279673
0.00269643
0.00259896
0.00250489
0.00241334
0.00232318
0.00223478
0.00215045
0.00206954
0.0019901
0.00191387
0.0018413
0.0017717
0.00170448
0.00164091
0.00158158
0.00152355
0.00146661
0.00141395
0.00136338
0.00131503
0.00126943
0.00122429
0.00118223
0.00114211
0.00110247
0.00106433
0.00102726
0.0009902
0.000953352
0.000916742
0.000878706
0.000836509
0.000791225
0.000741592
0.000680993
0.00060817
0.000515597
0.000395489
0.000235119
2.11735e-06
-0.000330306
-0.000837428
-0.00158761
-0.00354533
-0.00576172
-0.00771684
-0.00943379
-0.0109116
-0.0121694
-0.0132347
-0.014134
-0.014889
-0.0155155
-0.0160252
-0.016427
-0.0167277
-0.0169325
-0.0170456
-0.0170711
-0.0170117
-0.0168707
-0.0166511
-0.0163563
-0.0159906
-0.015559
-0.0150676
-0.0145232
-0.0139334
-0.0133062
-0.0126491
-0.0119699
-0.0112764
-0.0105753
-0.00987279
-0.00917439
-0.00848509
-0.00780875
-0.00714848
-0.00650706
-0.00588645
-0.00528787
-0.00471226
-0.00416012
-0.00363143
-0.00312591
-0.00264323
-0.00218277
-0.00174383
-0.00132538
-0.000926539
-0.000546376
-0.000183775
0.000162257
0.000492741
0.000808753
0.00111134
0.00140141
0.00167985
0.00194755
0.00220533
0.00245394
0.00269409
0.00292639
0.00315141
0.00336974
0.00358179
0.00378789
0.00398837
0.00418353
0.0043736
0.00455882
0.00473948
0.00491569
0.00508742
0.00525471
0.0054176
0.00557602
0.00573003
0.00587955
0.00602446
0.00616451
0.0062995
0.00642923
0.00655333
0.00667141
0.00678314
0.00688827
0.00698666
0.00707815
0.00716237
0.00723912
0.00730818
0.00736906
0.00742144
0.00746516
0.00750007
0.00752651
0.0075444
0.00755384
0.0075551
0.00754831
0.00753318
0.0075098
0.00747847
0.00743891
0.00739174
0.00733705
0.00727605
0.00720859
0.00713528
0.00705585
0.00697104
0.00688042
0.00678461
0.00668347
0.00657759
0.00646667
0.0063515
0.00623211
0.00610912
0.00598278
0.00585333
0.00572074
0.00558548
0.00544742
0.00530765
0.0051664
0.00502471
0.0048823
0.00473997
0.00459822
0.00445699
0.00431605
0.00417668
0.00403908
0.00390338
0.00376977
0.00363848
0.00351043
0.0033862
0.00326489
0.00314694
0.00303259
0.00292135
0.00281265
0.00270671
0.00260482
0.00250671
0.00241163
0.00232026
0.00223283
0.00214905
0.00206845
0.00199185
0.00191953
0.00184976
0.00178241
0.00171888
0.00165809
0.00160015
0.00154502
0.0014915
0.00144093
0.00139264
0.00134546
0.00129996
0.00125563
0.00121163
0.00116783
0.00112385
0.00107845
0.0010293
0.000975847
0.000917054
0.000847297
0.000763608
0.00065892
0.000524713
0.000347487
0.000100248
-0.000243027
-0.000737625
-0.00143023
-0.00762179
-0.0098063
-0.0115508
-0.0130341
-0.0142899
-0.0153451
-0.0162267
-0.0169588
-0.0175603
-0.0180453
-0.0184234
-0.0187014
-0.0188847
-0.0189768
-0.018981
-0.0189002
-0.0187373
-0.0184956
-0.0181786
-0.0177901
-0.0173352
-0.0168196
-0.0162496
-0.0156319
-0.0149735
-0.0142818
-0.0135637
-0.0128265
-0.012077
-0.0113215
-0.0105656
-0.00981443
-0.00907253
-0.00834358
-0.00763068
-0.00693642
-0.00626264
-0.00561079
-0.00498207
-0.00437694
-0.00379563
-0.00323811
-0.00270419
-0.0021933
-0.00170488
-0.00123814
-0.000792178
-0.000366038
4.1243e-05
0.000430646
0.000803213
0.00116
0.00150201
0.00183022
0.00214562
0.00244912
0.00274163
0.00302393
0.00329677
0.00356092
0.00381704
0.00406567
0.00430733
0.0045425
0.0047715
0.00499461
0.00521215
0.00542437
0.00563143
0.00583349
0.00603056
0.00622259
0.00640966
0.00659171
0.00676857
0.00694011
0.0071062
0.00726658
0.007421
0.00756919
0.00771076
0.0078453
0.00797258
0.00809221
0.00820397
0.00830765
0.00840289
0.0084894
0.00856698
0.00863526
0.00869403
0.00874287
0.00878174
0.00881071
0.0088299
0.00883944
0.00883951
0.00883003
0.00881093
0.00878232
0.00874426
0.00869699
0.00864091
0.00857663
0.00850453
0.00842519
0.00833869
0.0082452
0.00814509
0.00803849
0.00792555
0.00780675
0.00768227
0.00755223
0.00741712
0.00727744
0.00713346
0.00698548
0.00683375
0.00667858
0.00652016
0.00635889
0.00619557
0.00603077
0.00586526
0.00569916
0.00553293
0.00536716
0.00520211
0.00503785
0.00487529
0.00471479
0.00455636
0.00440041
0.00424739
0.00409799
0.00395278
0.00381122
0.00367341
0.00353971
0.00340976
0.00328319
0.00316028
0.0030418
0.00292757
0.00281721
0.00271114
0.00260955
0.0025123
0.00241895
0.00232996
0.00224549
0.00216451
0.00208681
0.00201302
0.00194272
0.00187559
0.00181151
0.00174985
0.00169121
0.00163521
0.00158089
0.0015284
0.0014773
0.00142675
0.00137652
0.00132585
0.0012736
0.0012179
0.00115756
0.00109089
0.00101293
0.000920182
0.000805815
0.000660693
0.000471949
0.000216903
-0.000127645
-0.000602233
-0.00123763
-0.0117594
-0.0138138
-0.0152963
-0.0165093
-0.017512
-0.0183365
-0.0190094
-0.0195518
-0.0199796
-0.0203047
-0.0205348
-0.0206754
-0.0207309
-0.0207039
-0.0205967
-0.0204118
-0.0201512
-0.0198179
-0.0194149
-0.018946
-0.0184157
-0.0178294
-0.0171929
-0.016513
-0.0157958
-0.0150482
-0.0142768
-0.0134883
-0.0126891
-0.0118852
-0.0110816
-0.0102834
-0.00949461
-0.00871889
-0.0079592
-0.00721815
-0.00649761
-0.00579921
-0.00512411
-0.0044727
-0.00384552
-0.00324276
-0.00266416
-0.00210933
-0.00157782
-0.00106883
-0.000581548
-0.000115144
0.000331317
0.000758854
0.00116849
0.00156125
0.00193817
0.00230029
0.00264863
0.00298417
0.00330781
0.0036204
0.00392281
0.00421584
0.00450017
0.0047764
0.00504515
0.00530689
0.00556196
0.00581073
0.00605351
0.0062905
0.00652187
0.00674778
0.00696822
0.00718312
0.00739245
0.00759613
0.00779396
0.00798573
0.00817126
0.00835033
0.00852258
0.00868754
0.00884492
0.00899443
0.00913565
0.00926827
0.00939206
0.0095066
0.00961154
0.00970656
0.0097915
0.00986611
0.00992992
0.00998268
0.0100244
0.010055
0.0100747
0.0100835
0.0100814
0.0100687
0.010045
0.0100106
0.00996555
0.00991033
0.00984507
0.00977096
0.00968787
0.00959662
0.009497
0.00938963
0.00927445
0.0091521
0.00902256
0.00888654
0.00874383
0.00859507
0.00844056
0.00828115
0.00811676
0.00794781
0.00777443
0.00759722
0.00741629
0.00723278
0.00704679
0.00685927
0.00667061
0.00648152
0.00629226
0.00610354
0.00591553
0.00572882
0.00554373
0.00536116
0.00518095
0.00500365
0.00482982
0.00465999
0.00449455
0.00433348
0.00417668
0.00402453
0.00387677
0.00373307
0.00359387
0.00345952
0.00332998
0.00320509
0.00308514
0.00297014
0.00286003
0.00275456
0.00265385
0.00255802
0.00246648
0.0023787
0.00229513
0.00221591
0.00214017
0.00206761
0.00199817
0.00193194
0.00186876
0.00180772
0.00174865
0.00169131
0.00163466
0.00157853
0.00152191
0.00146354
0.00140189
0.00133546
0.00126211
0.00117741
0.00107732
0.000955199
0.000802294
0.000606676
0.000349019
9.79516e-06
-0.000440504
-0.00102165
-0.0156422
-0.0175527
-0.0187808
-0.0197238
-0.0204671
-0.0210529
-0.0215105
-0.0218591
-0.0221113
-0.0222761
-0.022359
-0.0223647
-0.0222961
-0.0221543
-0.0219413
-0.021659
-0.0213082
-0.0208907
-0.0204091
-0.0198665
-0.0192673
-0.0186163
-0.0179192
-0.017182
-0.0164103
-0.0156111
-0.0147906
-0.0139552
-0.0131108
-0.0122629
-0.0114167
-0.0105765
-0.00974628
-0.00892966
-0.00812945
-0.00734808
-0.00658752
-0.00584946
-0.0051348
-0.00444412
-0.00377821
-0.00313717
-0.00252076
-0.00192877
-0.00136076
-0.000815913
-0.000293553
0.000207116
0.000687068
0.00114725
0.00158871
0.0020125
0.00241967
0.0028113
0.00318842
0.00355204
0.00390309
0.00424252
0.00457125
0.00489001
0.00519957
0.0055006
0.00579376
0.00607947
0.00635815
0.00663018
0.00689588
0.00715544
0.00740895
0.00765659
0.00789832
0.00813402
0.00836351
0.00858672
0.00880355
0.00901371
0.00921684
0.00941272
0.00960102
0.00978111
0.0099526
0.0101153
0.0102688
0.0104129
0.0105471
0.0106711
0.0107844
0.0108866
0.0109776
0.0110571
0.0111247
0.0111802
0.0112235
0.0112548
0.011274
0.0112811
0.0112763
0.0112594
0.0112307
0.01119
0.0111376
0.0110739
0.0109997
0.0109153
0.0108214
0.0107181
0.0106058
0.0104846
0.0103549
0.010217
0.0100714
0.00991841
0.00975808
0.00959102
0.00941792
0.00923927
0.00905515
0.00886576
0.00867164
0.00847312
0.00827076
0.00806559
0.00785797
0.00764857
0.00743781
0.00722644
0.00701531
0.00680459
0.00659456
0.00638607
0.00617956
0.0059757
0.00577475
0.00557709
0.00538341
0.00519411
0.00500953
0.00482989
0.004655
0.00448518
0.00432046
0.00416055
0.00400587
0.00385653
0.00371248
0.00357378
0.00344067
0.0033131
0.0031909
0.00307393
0.00296218
0.00285573
0.00275418
0.00265701
0.0025644
0.00247653
0.00239266
0.00231227
0.00223557
0.00216232
0.00209239
0.00202509
0.00195996
0.00189688
0.00183473
0.00177318
0.00171127
0.00164761
0.00158078
0.00150906
0.00143014
0.00133995
0.0012342
0.00110643
0.000948695
0.000749867
0.000493827
0.000164509
-0.000259432
-0.000790215
-0.0191551
-0.0209116
-0.0218948
-0.0225802
-0.0230759
-0.0234341
-0.0236861
-0.0238496
-0.0239351
-0.0239491
-0.0238946
-0.0237749
-0.0235906
-0.0233424
-0.0230312
-0.0226578
-0.022222
-0.0217249
-0.0211688
-0.0205562
-0.0198914
-0.0191788
-0.0184234
-0.0176315
-0.0168085
-0.0159612
-0.0150958
-0.014218
-0.0133331
-0.0124466
-0.0115633
-0.010687
-0.00982178
-0.00897099
-0.00813711
-0.0073226
-0.0065293
-0.00575873
-0.00501192
-0.00428956
-0.00359235
-0.00292034
-0.00227344
-0.00165132
-0.00105363
-0.000479623
7.13941e-05
0.000600172
0.00110768
0.00159489
0.00206287
0.00251265
0.00294532
0.00336195
0.00376357
0.00415123
0.00452596
0.0048887
0.00524032
0.00558161
0.00591342
0.00623643
0.00655121
0.00685826
0.00715804
0.00745088
0.00773713
0.00801696
0.00829044
0.0085576
0.0088184
0.00907263
0.00932018
0.00956091
0.0097946
0.010021
0.0102399
0.0104507
0.010653
0.0108463
0.0110301
0.0112043
0.0113686
0.0115224
0.0116654
0.011797
0.0119169
0.0120248
0.0121204
0.0122035
0.0122736
0.0123306
0.0123745
0.0124052
0.0124228
0.0124275
0.012419
0.0123973
0.0123627
0.0123151
0.0122551
0.0121828
0.0120993
0.0120049
0.0119001
0.011785
0.0116601
0.0115254
0.0113815
0.0112284
0.0110671
0.0108975
0.0107202
0.0105357
0.0103448
0.0101475
0.00994434
0.00973531
0.00952124
0.00930227
0.00907956
0.00885366
0.00862541
0.00839508
0.00816341
0.00793098
0.00769893
0.00746708
0.00723618
0.00700703
0.00678026
0.00655606
0.00633533
0.00611847
0.005906
0.00569828
0.00549574
0.00529854
0.00510644
0.00491999
0.00473926
0.00456409
0.00439478
0.00423137
0.0040737
0.00392204
0.00377652
0.00363714
0.00350361
0.00337586
0.00325386
0.0031376
0.00302668
0.00292079
0.00281987
0.00272381
0.00263221
0.00254474
0.00246144
0.00238173
0.00230542
0.00223235
0.00216174
0.00209338
0.00202629
0.00195992
0.00189333
0.00182513
0.00175403
0.00167794
0.00159451
0.00150019
0.00139046
0.00125917
0.00109902
0.000899933
0.000648891
0.000332724
-6.38932e-05
-0.000548646
-0.0221896
-0.0237767
-0.024551
-0.0250087
-0.0252857
-0.025441
-0.0255079
-0.0255035
-0.0254373
-0.0253145
-0.025135
-0.0249002
-0.02461
-0.0242638
-0.0238608
-0.0234007
-0.0228836
-0.0223096
-0.0216803
-0.020999
-0.0202702
-0.0194982
-0.0186877
-0.0178449
-0.0169754
-0.0160852
-0.0151799
-0.0142649
-0.0133455
-0.0124269
-0.0115132
-0.0106082
-0.00971562
-0.00883818
-0.00797836
-0.00713855
-0.00632053
-0.00552558
-0.00475477
-0.00400875
-0.00328814
-0.00259289
-0.00192307
-0.00127825
-0.000658033
-6.17232e-05
0.00051137
0.00106205
0.0015912
0.00209982
0.00258897
0.0030597
0.00351307
0.00395019
0.00437208
0.00477982
0.00517446
0.0055569
0.00592799
0.00628864
0.0066397
0.00698181
0.00731549
0.00764123
0.00795958
0.00827084
0.00857527
0.008873
0.00916406
0.0094484
0.00972597
0.00999641
0.0102598
0.0105159
0.0107644
0.0110049
0.0112375
0.0114611
0.0116752
0.0118795
0.012074
0.0122579
0.0124308
0.0125924
0.0127421
0.0128795
0.0130043
0.0131165
0.0132153
0.0133003
0.0133714
0.0134286
0.0134719
0.0135008
0.0135159
0.0135169
0.0135037
0.0134765
0.0134354
0.0133809
0.0133129
0.0132321
0.0131393
0.0130347
0.0129189
0.0127922
0.0126546
0.0125068
0.0123489
0.0121814
0.0120048
0.0118194
0.0116257
0.0114246
0.0112166
0.0110016
0.01078
0.0105525
0.0103193
0.010081
0.00983892
0.00959356
0.00934558
0.00909549
0.00884402
0.0085919
0.00833979
0.00808807
0.00783757
0.00758907
0.00734299
0.00709977
0.00686044
0.00662559
0.00639545
0.00617046
0.00595107
0.00573739
0.00552928
0.00532735
0.00513162
0.00494213
0.00475915
0.00458259
0.00441227
0.00424865
0.00409172
0.00394127
0.00379714
0.00365942
0.00352797
0.00340266
0.00328316
0.00316914
0.00306049
0.00295692
0.00285827
0.00276432
0.00267488
0.0025893
0.00250732
0.002429
0.00235338
0.0022803
0.00220883
0.00213829
0.00206768
0.00199571
0.00192116
0.00184165
0.00175486
0.00165765
0.00154554
0.00141279
0.00125247
0.00105575
0.000812302
0.000511351
0.000142158
-0.000300348
-0.0246128
-0.0261002
-0.0267054
-0.0269791
-0.0270729
-0.0270538
-0.026959
-0.026806
-0.0266038
-0.0263569
-0.0260634
-0.025724
-0.0253356
-0.0248965
-0.0244052
-0.0238605
-0.0232631
-0.0226134
-0.0219134
-0.021167
-0.0203782
-0.0195513
-0.0186908
-0.0178029
-0.0168927
-0.015966
-0.0150281
-0.0140838
-0.013138
-0.0121954
-0.0112596
-0.0103342
-0.00942266
-0.00852737
-0.0076506
-0.0067945
-0.00596064
-0.00515021
-0.00436426
-0.00360326
-0.00286764
-0.0021574
-0.00147253
-0.000812579
-0.000177107
0.000434598
0.00102321
0.00158949
0.00213433
0.00265876
0.00316381
0.00365051
0.0041199