/*--------------------------------*- C++ -*----------------------------------*\
  =========                 |
  \\      /  F ield         | OpenFOAM: The Open Source CFD Toolbox
   \\    /   O peration     | Website:  https://openfoam.org
    \\  /    A nd           | Version:  8
     \\/     M anipulation  |
\*---------------------------------------------------------------------------*/
FoamFile
{
    version     2.0;
    format      ascii;
    class       volScalarField;
    location    "100";
    object      wpod_1;
}
// * * * * * * * * * * * * * * * * * * * * * * * * * * * * * * * * * * * * * //

dimensions      [0 1 -1 0 0 0 0];

internalField   nonuniform List<scalar> 
12225
(
-6.60382e-16
8.06147e-18
1.21161e-17
-2.86583e-17
5.13519e-17
5.32951e-18
3.50107e-20
2.83235e-17
1.6207e-17
-4.52581e-18
-1.14572e-17
9.81203e-18
1.21862e-17
-6.54746e-18
1.18847e-17
1.14389e-17
-4.24714e-18
-8.33915e-18
-5.4418e-18
6.88099e-19
4.26005e-18
2.16393e-18
4.54573e-18
-4.95876e-19
1.21566e-18
1.10213e-18
1.95874e-18
-1.77256e-18
-1.33776e-19
-8.73039e-19
8.57584e-19
1.91304e-19
-3.50387e-18
-1.53591e-18
-2.295e-18
2.17803e-18
-2.31011e-18
1.33397e-18
1.99919e-18
1.45981e-18
1.11491e-18
-2.2257e-18
1.8001e-18
-2.85447e-18
-7.23327e-19
1.60781e-18
1.10678e-18
-2.15293e-18
1.91618e-19
9.54267e-19
-1.98983e-18
8.92143e-19
8.22558e-19
4.66626e-19
6.61366e-19
8.68596e-19
-1.21124e-18
-1.1725e-19
-2.84211e-19
1.38551e-19
-4.09376e-19
-1.0023e-20
-1.28515e-19
2.08011e-19
-9.53778e-19
8.34186e-19
-6.31786e-19
-5.74222e-19
7.48882e-19
-1.7177e-19
2.1586e-19
-5.23396e-19
8.6214e-19
5.77005e-19
3.48579e-19
-2.66632e-20
-2.45064e-19
-1.49099e-19
-6.21088e-20
4.43754e-20
-1.7485e-19
-1.33879e-19
-3.78333e-20
-4.56982e-20
-1.46607e-19
-8.0044e-20
5.10409e-20
4.43859e-20
-4.44345e-20
-5.33191e-20
-5.38487e-20
-4.81241e-21
5.8695e-22
4.68966e-21
1.50138e-20
-1.35524e-20
1.02546e-21
9.83333e-22
0
0
0
0
0
0
0
0
0
0
0
0
0
0
0
0
0
0
0
0
0
0
0
0
0
0
0
0
0
0
0
0
0
0
0
0
0
0
0
0
0
0
0
0
0
0
0
0
0
0
0
0
0
0
0
0
0
0
0
0
0
0
0
0
0
0
0
0
0
0
0
0
0
0
0
0
0
0
0
0
0
0
0
0
0
0
0
0
0
0
0
0
0
0
0
0
0
0
0
0
0
0
0
0
0
0
0
0
0
0
0
0
0
0
0
0
0
0
0
0
0
0
0
0
0
0
0
0
0
0
0
0
0
0
0
0
0
0
0
0
0
0
0
0
0
0
0
0
0
0
0
0
0
0
0
0
0
0
0
0
0
0
0
0
0
0
0
0
0
0
0
0
0
0
0
0
0
0
0
0
0
0
0
0
0
0
0
0
0
0
0
0
0
0
0
0
0
0
0
0
0
0
0
0
0
0
0
0
0
0
0
0
0
0
0
0
0
0
0
0
0
0
0
0
0
0
0
0
0
0
0
0
0
0
0
0
0
0
0
0
0
0
0
0
0
0
0
0
0
0
0
0
0
0
0
0
0
0
0
0
0
0
0
0
0
0
0
0
0
0
0
0
0
0
0
0
0
0
0
0
0
0
0
0
0
0
0
0
0
0
0
0
0
0
0
0
0
0
0
0
0
0
0
0
0
0
0
0
0
0
0
0
0
0
0
0
0
0
0
0
0
0
0
0
0
0
0
0
0
0
0
0
0
0
0
0
0
0
0
0
0
0
0
0
0
0
0
0
0
0
0
0
0
0
0
0
0
0
0
0
0
0
0
0
0
0
0
0
0
0
0
0
0
0
0
0
0
0
0
0
0
0
0
0
0
0
0
0
0
0
0
0
0
0
0
0
0
0
0
0
0
0
0
0
0
0
0
0
0
0
0
0
0
0
0
0
0
0
0
0
0
0
0
0
0
0
0
0
0
0
0
0
0
0
0
0
0
0
0
0
0
0
0.000635
-0.000383693
0
0
0
0.000192842
0
0
0
0
-0.000207652
0
0
0
0
-0.000219424
0
0
0
0
0
0
0
-0.000194916
0.000179996
-0.000162215
-0.000147773
0
0
0.000120458
0.000114122
0
0
0.000100618
0
0
-9.14386e-05
0
-8.62573e-05
-0.00016819
0
0
0
0
0
-0.000144497
-0.000141622
-0.000138191
0
0.000131174
0
-0.000125561
-0.000122444
0
0
0
-0.000111262
0
0
0
0
0
0
0
0
8.77078e-05
0
0
-8.00507e-05
-7.69344e-05
0
7.19729e-05
-6.88844e-05
0
6.41166e-05
0
0
-5.48328e-05
0
4.87665e-05
0
-4.31491e-05
-4.04283e-05
-3.71247e-05
-6.7502e-05
6.21317e-05
0
0
0
3.45653e-05
2.87604e-05
-2.1204e-05
0
6.67385e-06
-4.87329e-07
-7.33218e-06
0
0
0
-3.90685e-05
0
0
6.51828e-05
0
0
9.19996e-05
0
0
-0.000119455
-0.000128452
0
0.000148617
0
-0.000166729
0
-0.00018457
-0.000193244
0
0
0
0
0
0
0
-0.000223591
0.000225643
0
0
0
0
0.000465607
0
-0.000469643
0.000475839
0
0
0
-0.000481578
-0.000479865
0
-0.000473308
-0.000468615
0.000460619
0
0
0.000444447
0
0
0
0
-0.000429612
-0.000429381
0
-0.000417033
0
0
-0.000417961
0
-0.00040508
0
0
-0.000411083
0
-0.000409682
0
0
0
0.000405136
0
-0.000409791
0
0
0
0
0
0
0
0.000874373
0
0
-0.00136589
0.000733066
0
-0.000530094
0
-0.000235391
0.000452305
0.000436332
0
0.000411503
0.00019919
0
0
0
0
0.000167202
0
-0.000310747
0
0
0.000277031
0
-0.000256824
0.000121572
-0.000115233
0.000110078
0.000105683
0
0
-9.3907e-05
9.10929e-05
0
0
-8.32432e-05
0
0
7.75702e-05
0
-7.44868e-05
0.000145501
0
0
0.000274436
0.000269313
0.00026385
-0.000130233
0.000127804
0.000376242
-0.000247029
-0.000120951
0
0.00011679
-0.000115079
0
0
0
0.000107693
0
-0.000206419
0
-0.000198536
0
0.000190748
0
-0.000184331
9.05646e-05
0
0.000173808
8.5552e-05
8.36964e-05
0
8.18079e-05
7.91478e-05
0
-7.54178e-05
0.00014706
0
6.95294e-05
0
-0.000198517
0
0.000191273
6.15966e-05
-6.09211e-05
-0.000117
0.000113589
0
0
0
-0.000289192
-9.31128e-05
9.16477e-05
0
8.40155e-05
-7.97366e-05
-7.73241e-05
0
0
0
-5.9722e-05
0
0.000104401
0.000135481
-8.94218e-05
0
-3.42706e-05
0
-5.12665e-05
2.1486e-05
2.17546e-05
0
2.65371e-05
-1.67338e-05
-7.56333e-06
0
1.43489e-06
1.82461e-05
0
1.69111e-05
3.61969e-05
4.17608e-05
0
0
0
-2.75705e-05
-2.89144e-05
0
-8.64882e-05
-8.37016e-05
0
-8.42079e-05
-0.00019917
9.89987e-05
0.000113525
0
0
0
0.000140926
-0.000144198
-0.000297294
0.000141891
-0.000131502
-0.000129521
0
0
0.000137492
0
0
-0.000323404
0
-0.000168684
0.000181625
0
-0.000165304
0
0
0.000192771
-0.000364954
0.00017517
0
0
-0.000202119
0
-0.00020915
0
0
0
-0.000211808
0
0.000221841
0
0
-0.000457726
0.000433998
0
0
0
-0.00153532
0
0.000972182
-6.57466e-07
-0.000865898
0
0.000682751
0
0
7.46647e-07
-0.000242756
-0.000237607
-0.00022989
0
0
0.000217825
0.000432483
-0.000426163
0
-0.00040199
0.000193035
0
-0.000374855
-0.000183349
0.000357206
0.000174583
0
-0.000328054
-0.000315417
0
-0.000295208
0
-0.000278866
-0.000134938
0
0
0
0
0
0
-0.000239904
0.000354532
0
0
0
3.92509e-07
-0.000218031
-0.000426654
0.000423084
0.000208956
-0.000203606
-3.52509e-07
-0.000197351
0
-0.000190536
-3.55728e-07
0
0
0.000184153
0
0
-0.000172758
-0.000341573
0.000167223
0
-0.000161541
0
-0.000157388
-0.000152629
0.000303223
0.000149328
0
-0.000288397
0
-0.00042847
-0.000280198
-0.000271265
0.000262891
-0.000387527
0
0
0.000243023
0.000351588
0
-0.000113035
0
0.000334651
-1.19008e-06
1.2095e-06
-0.000205682
0
0.00019115
-1.28214e-06
0
0
0
-0.000163332
0
0
0
0
0
-0.000137277
0
-0.00011891
-0.000109087
0.000108928
0
9.41983e-05
0
8.35619e-05
-7.46253e-05
-0.000230583
0
-0.000189378
-6.00874e-05
0
-0.000109066
-9.66398e-05
0.000128794
0
3.15275e-05
1.9615e-05
7.24616e-05
0
0
0
4.742e-06
0
0
1.35658e-05
1.64313e-05
0
0
4.99574e-05
0
-7.85476e-05
-6.90064e-05
0
0
0.000104731
1.61645e-06
1.555e-06
0
0.000226471
0
0
0
-0.000132953
0
0.000336873
0.000179635
0
0.000177558
0
0
0.000571268
-0.000423492
0
-0.000463227
0.000223608
0
0
0
0.00076048
0
0.000272376
0
0
0
0
0
0
0.000574785
0
0.000311164
-0.000900952
0
0
0.000643069
0.000737751
-0.0006977
-0.000686003
0.00171083
0.00119757
0.000698611
0.000284822
0
-0.000409756
0.000188284
0
0.000172655
0
-0.000329707
0
-0.000159172
-0.000314259
0.000312304
0
0.000299802
0
0
0.000280981
0
1.27771e-06
0
0
-1.19582e-06
0.000252528
0.000247744
0.00024171
0
0.000470875
0
0.000228141
0
0
-0.000221617
0
0.000214254
-6.22643e-07
-0.000419252
0.000414911
0
0
0.000199908
0
0.000194046
-0.000191635
-0.000189362
0
0.000184849
0.000182608
-0.000361009
0.000177583
0.000175383
0
0
-0.00016956
0
0
0.000325074
0.000321152
0
0
0
0
0.000298316
-0.000293537
-0.00028971
-0.000570293
0
-7.05549e-07
0
0.000268346
-7.15589e-07
0.0002592
-0.000254194
-7.35744e-07
0
-0.00024146
-0.000235826
-0.000461947
0
0.000222532
0
-0.000429331
0.000210047
-0.000204196
0.00020169
0.000395736
-0.000190521
0.000186696
0
-0.000357995
0
-0.000336594
0.000329546
0.00032356
-0.000310874
-0.000302983
0
-0.000144599
0
0
-0.00025513
0
0
-0.000229303
0
0
0
0.000386779
0
0.000350535
0.000164463
0.000165084
-1.81625e-06
0.000142664
-0.000275315
-0.000128304
0
-0.000107392
-0.000208878
0
0
0
1.54395e-06
0
0
0
0
7.67958e-05
0
-4.6589e-05
0
-8.15382e-06
2.03635e-08
-1.81971e-05
3.11962e-05
1.95875e-05
-2.71141e-05
3.60507e-05
0
3.90899e-05
0
0
0
0.000128903
0
-1.18684e-06
0
0
0.000188044
0
0
-0.000226205
6.73144e-07
0
0.000276235
0.000279109
0
0
-0.000305322
-4.33767e-07
0
-0.000359374
0
0
0
0.000410191
0
0
-0.000406132
0
0
0.000889068
0
0
-0.000491086
-0.00106894
0.000525085
0
-0.00100293
-0.000759394
-0.000632402
-0.000508048
0
0.00072642
1.28935e-06
0
0
0
0.00029475
0
0
0
0
0
-0.000271028
-0.000264921
0
0
0.000252517
-0.000496322
0
-0.000241014
0.000235146
0
-0.00068281
0.000451392
-0.000447433
-0.000220334
0
-0.000653413
0
0
0.000210444
-0.000417761
-0.00061755
0.00060952
0.000200316
-0.000395896
0
0
1.12297e-06
0
0.000375775
0.000371145
0.000367301
0
-0.000359274
0
0.000701411
0
-0.000342715
0
0.000334208
0
0
0
0
0
0
0
0.000302053
0
0
0.000289001
0
0.000280806
0.000277343
0.000272633
0
0
0.000260389
-0.000514298
0
0.000743975
0
0.00023996
0
0.000231833
0.000454253
-0.000222612
0
0.000215291
-0.000422792
0
0
-0.000398458
0
0.000382006
0
0.000363538
0
0.000695529
-0.000339763
-0.000666856
0.000324307
0.000314963
0
-1.2772e-06
0
-0.00028454
0.000275151
0
0
0.000251205
-0.000244916
0
0
-0.000219468
0
-0.000204459
0
-0.000190973
0.000181678
-0.000353854
0.000169072
0.000160169
0
0.000144472
0.000137752
0
0
0.000243746
-0.000116286
0.000215653
0
0
0
-0.000313925
0
0.000131974
0
0.000102389
0
-8.00848e-05
6.59667e-05
5.40703e-05
-4.38804e-05
0
0
-1.08486e-06
0
0
0
-3.957e-05
0
-6.42078e-05
0
-8.27372e-05
-9.00072e-05
9.94252e-05
0
-0.000125561
0.000137611
0
0.000159984
-0.000340785
0
-0.000391441
0.000200914
-0.000214205
0
0.000242235
0
0
0
-0.000291127
0
0
0
0
0
-0.000343623
0
-0.00076066
0
0.000800154
0.000810131
0
0
0.000726656
0
0
0
1.62612e-06
1.52574e-06
0.000301157
0
0
0
0
0
0.000538552
0
-0.000525893
0.000257664
0.000253657
0
0
-0.000242253
0.000238587
0
0.000230347
-0.000453777
0
0.000435672
-0.000433598
0.000430917
0
0
0.000422827
0
0
-0.000412458
0.000816332
0.000402555
-0.000797172
0.000393695
0
0
0
-0.000376385
0
-0.000368223
-0.000363954
-0.000360034
-0.000356998
0.000352051
0
-0.000344153
0
-8.35996e-07
0
-0.00065701
0
0.000321508
0
0
0.000619493
0
0
-0.000297586
0
0
0.000573455
0
-0.000556696
-0.000274243
0
0.000535788
0
-0.000518698
0.00102103
0
-0.000494924
0
0
-0.000473243
0
-0.000456057
0.000447918
0
0
0.000424929
-0.000418294
-0.000411287
-0.000405687
0
-0.000387511
-0.000377329
0
0
-0.000358126
0
0.00034138
0
-0.000326757
0
-1.01131e-06
0
0.000295755
0
0
0
0
0.000260546
0
0
0.0004803
0
0
0
0.000418516
0
0.0003876
0
-0.000368189
0.000351144
0
-0.000323643
0
0
-0.000582386
0.000284551
-0.000261333
0
0
0
0.000417423
0
-0.000187705
0
0
0
0
-0.000131687
0
0.000112272
-9.47336e-05
-8.36478e-05
7.18724e-05
0
0
0
0
0
0
0
1.27898e-05
0
-3.08612e-05
0
0.000169586
0
-0.000156949
-8.46241e-05
9.51789e-05
0
0.000239666
0
0.000283434
0
0
0
0
0
-0.000412155
-0.000437177
0
0
0
0
0.000538223
0
0.00117925
-0.000600486
-0.000618064
-0.000636754
-0.000648658
0
-0.000676832
0
-0.000896084
-0.000755132
0.000333993
0.000307364
0.000292602
0.000561776
0
0
-0.000531112
0
-0.00103292
0
0.000506283
0
0
-0.000486661
0
-0.000474032
0
0
0
-2.89532e-06
0
0
0
0
0
0
0.000417224
0
-0.000407903
-1.98462e-06
-0.00039823
0
0.000390151
-0.000384017
0
0
0
0
0
0
0.000359234
-0.000355868
0.000351158
-0.000696811
0
0.000680801
-0.000672914
-0.000333411
0
0.000324058
0
-0.000317059
0
0
-0.000610828
0
0.000598676
0
0
0
-0.00113616
-0.000560935
0.000552949
0.000546838
0
-0.000531979
0
0.000514992
1.05968e-06
0
0
0.000487586
0
0.00047115
0
-0.000458665
-0.000448182
0
0
0
0.000418245
0.000410607
0.000406316
0
0
0.000382374
0.000376374
0
0
0
-0.000692191
0
0.000330677
0
-0.000318474
0
0.000608502
0.000589868
-0.000576122
0
0
0.000543029
0
0.000516128
1.63328e-06
-0.000490093
0
0
-0.000443683
0
0
-0.00040689
0.000394668
-0.000759757
0
0.000353845
0
0
0.000647386
-0.000316413
0
0
0
0
-0.000239804
0.000233741
0.000219532
0
0
0
0.00018833
0.000350408
0
-0.000456444
0.000131946
0.000123023
0
-0.000207017
0
0
0
0
-9.94428e-05
0
0
0
0
0
1.21189e-07
-4.68931e-05
6.03082e-05
-6.67899e-05
0
0.000114423
0
-0.000170615
-0.000184931
0
0
-0.000242473
-0.000264904
-0.000279961
-1.39414e-07
0.000331875
0
0
0
-0.000408327
-0.000429039
0
-0.000952188
1.73527e-06
2.62615e-06
0.000507947
0.00106499
-0.00159453
0
0
0.00164341
0.000699504
4.6508e-06
-0.000581136
4.13273e-06
-0.000537717
0
0
0.000509529
0
0.00049638
0
0
0
0
0.00047516
0
0.000459153
0
0
0.000441568
0.000431088
0.00042728
0.000425077
0
0.000421484
0.000416787
0.000413326
-0.000407222
0
0.000397977
-2.08932e-06
-0.000392969
-0.000389467
0
0.000379463
0
0
-0.000737331
-0.000730281
0
0
-0.00106383
0.00105461
0
-2.19589e-06
0
-0.000671224
0.000663947
0.000655975
0
0
0
-0.000629986
0
0.000614552
0
0
-0.00059226
0
0
0
0.00112713
0.000555594
0
1.13751e-06
0
0.000528795
-0.000521426
0.000514228
-0.000506589
0
0.00049227
9.79175e-07
0
0
0.000467855
0.000459855
0.000454027
0.000444746
-0.000435865
0
0
0
0
-0.000806572
0
0
-0.00114176
0
0.000725665
0
0.000698618
0
0.000675117
0
0.000642134
0
-0.000617672
-0.00121041
0.000589194
0
-0.000570423
-0.000556271
0
-0.000532348
-0.00051687
0.000505035
-0.000489971
0.000481464
0.00046131
0
0
-1.21145e-06
0
0.000398336
0.000391406
0
0
0.000347484
-0.000341273
0
0
0
0.000294355
0.000285192
0
-0.000264414
0
0
0
0
-0.000214944
-0.000204764
-0.000376522
0.000357201
0.000329263
0.000308037
0
0.000534331
0
0
0
0
0.000152659
0
0
-9.76778e-05
0
0
4.18036e-07
-4.44126e-05
-8.6753e-06
-1.28764e-06
-1.91179e-05
-9.17845e-05
6.69479e-05
-5.35179e-07
0
0
0
0.00016852
0.000191272
0.00020841
-3.84378e-07
0
0
0
0
0.000333005
0
0
0.000387008
0.000406881
0.000409811
-0.000428982
-0.000447293
0.00147091
0.00110199
0
-0.000715783
0
5.34436e-06
-0.000557666
-0.000532002
0
-0.000509279
0
0
0
-0.000476507
0
0
0.000470863
0
0
-0.000454691
0
-0.000443118
0
-0.00085261
0.000422037
3.08835e-06
2.9896e-06
-0.000412914
-0.000409117
-0.000816416
2.57797e-06
0
0
-0.000788171
0.00038797
0.000384867
0.000381764
0
-0.00111976
0.000742496
0.000736069
0.000726679
0.000720333
0
-0.000709188
0.00140125
-0.000693232
-0.000688951
0.00136152
0
0
0
0
-0.000644826
0
0
0.000623031
0
-0.00121984
0
0.000596925
0
0
0
0
-0.000560868
0
-0.000547154
1.10989e-06
0
-0.00052653
0.000519634
-0.000512506
0
0
-0.000978416
-0.000482417
0
0
-0.00139492
0
-0.00135867
-0.000443888
0.000436086
0.000863586
0
0
0
-1.55905e-06
-0.000794164
0
-1.50968e-06
0
-0.000735885
-0.000720103
0.000706706
0
-0.000680943
0
0.000652394
0
0.000629815
0.000614946
-0.000601935
0
0.00116253
0
0
0
0
0
0.000506459
-0.000494692
-0.000473153
0
0
-1.01526e-06
0
0.000415213
-0.000810377
0
0.000755389
-0.00108503
0
-0.000699779
0
0
-0.000311716
-0.000303455
0.000568493
0.000559298
0
0
0
0
0
0
0.000817974
0
2.83143e-07
-0.000353817
0.000325673
-0.000306368
0
0
0
0
0.000196904
0
0.000157472
0.000280535
-0.000121298
0
9.37096e-05
6.87345e-05
6.06852e-05
5.11337e-05
-2.96935e-05
-2.66109e-06
-1.2512e-05
6.71442e-05
0
0
9.68009e-05
-0.000119213
0
-0.000318403
0.000169867
0
0
0
-0.000524423
-0.000553266
0
0
0
-0.00068422
-0.000699746
0.000743938
0
0
-0.000968507
0
-0.000651455
0
-0.000533675
0.000517188
-0.000514004
0
0.000494687
0
0
0
0.000461595
-0.000464636
0
-0.000912836
0.000454874
0
0.00043885
0
0.000420641
0.000417803
0.000822705
-0.000819332
-0.000406726
-0.001219
0.000402654
-0.000809541
0.00120487
-0.000397051
0
-0.000787722
0.000771595
0.000768865
0
0
-0.000747696
0.000736072
-0.00146629
-0.00145383
0
0
0
-2.67715e-06
2.55146e-06
0.000689035
0.000679956
-0.00134849
0
0
0
-0.000647441
-1.77943e-06
0
0
0
0
-1.46077e-06
0
-0.0011848
0
0
0
0
0
0.000553636
0.00109108
-0.000538733
0
-0.00105559
0.0010397
0
-0.00101161
0.00100134
0.00147149
0
0
0
0.000929344
0.000916071
0.00180264
0
-0.000873195
1.4921e-06
-0.000850099
-0.000834903
0
0.00163424
0.00160335
0
0.000766467
0
0
0.000727995
1.2635e-06
-0.000707632
0
0
-0.00132419
0
1.12359e-06
0
0.00061016
0
-0.000589137
0
0
-0.000552331
0
0
0
0.000506532
0.00048456
0
0.000928187
0.000449724
-0.000871479
-0.000426984
-0.000418103
0.000812066
1.23984e-06
0.000755778
0.000742978
0.00142669
-0.00069367
0
-0.000656296
-0.000627975
-0.000593487
6.8818e-07
0
0
0
0
0
0
-0.000863294
0
-0.00080347
0
-0.000703911
0
0.000316263
0
-0.000277759
0
-0.000471615
0
-0.000193682
-7.95528e-07
0.000307705
0
0
0
0
-8.21914e-05
0
0
0
1.60116e-05
-4.67512e-05
0
-6.27345e-05
8.53986e-05
0.0002091
0.000245642
0.000270258
0.000334742
-0.000349727
0
-1.06571e-06
0.000943425
0
0
0
2.03244e-06
3.24766e-06
-0.000658807
0
-0.00122106
0.000849494
0
0.000597116
0
0.000516339
0
0.000495554
0
-0.000490265
0
0
0
0.000459557
0.000450086
0
0.000438399
-0.000432345
0
0
0
0
-0.000405972
-0.000403148
0.000400357
0
0.00079016
-0.000800559
0.00159646
-0.00079111
0
0
0.000771899
0
-0.000756604
0.000754637
0
0.00147445
0
0.000724431
0.000718992
-0.00071681
0
0
0.000694053
2.44098e-06
-0.000679777
0.000675653
-2.10961e-06
0
0
0.000649446
0.000641267
0.000634728
0.000629659
0
0
0
0.000602938
0
-1.25513e-06
0.000585937
-0.000579127
0
0.00113116
-0.00111751
-0.00165809
-0.00163685
0
0
0.00105296
-0.00103873
0
0.00101186
-0.000998263
-0.0009828
0
0
-0.000951275
0
-0.000914598
-0.000899498
-0.00089129
0.000877759
-0.000862909
0.000847508
0.0016666
0
-0.000816881
-0.000804802
0
0
0
0.000747222
0
-0.000725508
0.000713917
0
0
0.000669355
0
-0.00128716
0
0
0
-0.000600012
0
0
0.00167903
0
0
0
-0.00153741
-0.000495733
0
-0.000956044
-0.000928755
0.00179665
-0.000877487
0.000851921
1.02083e-06
-0.000821825
0
-0.000770845
-0.000739094
0.000724739
0
-6.05272e-07
0.00129994
0
-0.000609797
0
0
0
0
0
0
0.000446561
0
0.000426355
-0.000406965
0.000378389
0
-0.000342431
0
7.24865e-07
0
8.45409e-07
0
0
-0.000205548
-0.000185041
0
0.000299917
0
0
0
0
0.000121827
0
-4.62819e-05
-2.28865e-06
1.56658e-05
0
0
-0.00015136
-0.000196248
-0.000213283
1.84782e-06
0.000293279
0
0.000370659
-0.000813177
0
0
-0.000486724
0.00106483
2.61209e-06
0
0
0.00109148
-0.000739194
0.000596329
0
0
7.12504e-06
0
0
0
-5.84079e-06
0
0
0
-0.00044323
-0.000884576
0
0
0
-0.000862533
-0.000857336
0.000846367
0.000832747
0
0
0
0
0
-6.01077e-06
-0.000786348
0
0
0
0
0
0
-0.000742497
0
-0.000733694
0
0
0
0.000711085
0
0
0
2.24736e-06
0
-0.00134319
0.000663724
0
0
-0.000644637
0.000639928
0
-0.000625826
-0.000620928
0
0
0
0
0.000590267
-0.000583947
0.000577157
-0.00114348
-0.002255
0.00111279
0.00110324
0.00109022
0
0
0
0
-0.0010297
0
0
0
0.000977317
0
-1.1942e-06
0
0.000925809
0
0.000897324
0
0
0
-0.000846564
0
0
-0.000808284
-0.000794374
-0.000783928
0
9.00706e-07
0
0.000732459
0
0
-0.000690895
0
0
0.000645622
0.000636898
0
0
0.00060625
-0.00119036
0
-0.00113804
0
0
-0.00105944
0.00103937
0.00101584
0
0
0.000942251
-0.000917478
0.000892622
-0.000867462
-0.000851558
-0.000839447
-0.000801016
0
0.00076466
0.000746799
0
0.00070016
3.29475e-07
0.000653873
0
0
0
0
0
0
-0.000499523
0
-0.000451811
0
0.000428469
0
0
-0.00036302
0
0.000661665
0
0.000283356
0
0
0
0
0
-0.000667548
0.000287864
0.000270175
0
-0.000201597
-0.000173063
0
0
-2.61756e-06
1.65567e-05
0
-9.07765e-05
0
0.000162782
0
-0.000470894
0
-0.000293843
0
0.000359875
0
0
0.000442785
-0.000483352
1.99373e-06
0.000534924
0
0
0
-0.000478407
0
0
-0.000457869
0
-0.000469493
0
-0.00046206
0
0
0
0
0.000859289
-0.000860484
0
0
0.000836411
0.000834347
8.3855e-06
-0.000819427
0
0
0
0
0
0.00156528
0
0
0
0
-0.000755526
-0.000750303
0
0
-0.000733143
0
0
0.000715456
0
0
0
0
0
1.96567e-06
0.000673797
0.000665094
0
0.000653933
0
0
-0.000635367
0.00126091
0
0.000617868
0
0
0
0
0
0
-0.00115382
0.00114045
0.00112664
0.00111193
-0.00109913
0
0
0
0
0.00104058
0.00102807
-0.00101394
0.00100607
0
-0.00196225
0
0.000951713
0.000941447
-0.00185984
0
0
-0.000882873
0.000874977
-0.000863463
0.000855961
0
0
-6.85638e-07
0.000797878
-6.69867e-07
0
6.54145e-07
-0.000744043
6.29429e-07
0
0
0.000697012
0
0
0.00130953
0.000644945
0
0
0
0.00120419
0
0
0
0
0.00215074
-0.00105392
1.01488e-06
0.00101172
0
-0.000952731
0
0.000908341
0.000883539
0
0.000853287
0.00163541
0
-0.000779165
-0.00151944
0
0
-0.00138646
7.41209e-08
0
0
0
-0.000588798
0
0
0.0010374
0.000495047
0.000477666
0
0
-0.000425719
0
-0.000374443
0
-0.000342358
0
-0.000591778
-0.000559619
0.000499256
0
0
0
0.000365779
-2.79424e-06
-0.000307221
0
0.000226263
0
0
0
-7.00332e-05
0
-4.65082e-06
6.28532e-05
0
-0.000140061
0.000146751
-2.53348e-06
0.000238373
-2.28265e-06
0
-0.000328975
0
0
0
0.000441166
1.38241e-06
-0.000994347
0
0.000865489
0.000556608
0
0
0
0
0
0.000461867
0
-1.30972e-05
0.000928777
0
0
0
0
0.00171995
0
0
0
0
-0.00162858
0
0
0
-0.000791063
0
0
-0.000765933
0
-0.00076448
0
0
0.000740156
0.00147274
0
0
0.000717994
0
-0.000711577
-0.000703404
0.000700641
0
0
0
0
-0.000671028
-0.000664421
0
0
-0.000645861
0
0
0
-0.00124849
0
0
-0.00121544
0
-0.00119315
0
0
0
0.00114641
0.00113743
-0.00112573
8.68755e-07
0.00109659
0
0
0
0
-0.00103346
-0.00102233
0.00100907
-0.00100034
-0.00098964
0.000978816
0
0
4.30921e-07
-4.08858e-07
-0.000914957
0.000903876
-3.91134e-07
-0.000877497
0.00173077
-0.000853986
0
-0.000826911
0.000811236
0
0.000787051
0
0.000761138
-0.00074941
-0.000736221
0.00144908
0
0
-0.0013797
0
-0.001328
-0.00130001
0
-0.00126529
0
0
0.00119293
0
0
0
7.61401e-07
0.00107227
-0.00104649
-0.00102161
0
0.0019376
-0.00094345
-0.000924959
0.000904352
0
-0.000863457
-0.000831021
-0.000807924
0
0.000771747
0
0
0.00140927
-0.000673094
0
0
0
0.000599996
0
0
-0.000534691
-0.000513138
-0.000990332
0.000962216
-0.000907124
0.000440987
0
0.000775826
0
0
0
0.000610374
0.00115102
-0.000532224
-0.000501569
0.000468975
0.000431489
-0.000386489
-3.09556e-06
0
0
0.000246165
0
-0.000152796
0
0
6.37643e-05
6.65109e-05
0
0
0.000215068
-0.000114272
0.000192233
-0.000209215
0.000236699
0.000266166
0.000606692
0
0
0
-0.000419261
0.000437688
0.000467789
0
-0.000800058
-0.000487023
0
0
0
0
0
0
0
0.000855294
-0.000853052
0
0
0.000856974
0
-0.00167468
0.000830326
0
0
0
0.000788718
0.000789906
0
0
0.000768461
-0.000765746
0
0
0.000748112
0.000740606
0
0
0
-0.000719927
0
0
0.00070894
0.000704413
0.000699258
0
-0.000687354
0
0
0
0.00133085
0
0.00130904
0
0
0.00127663
0
0.00125776
-0.00124606
0
-0.00122296
-0.00121203
0.00120059
0
0.00235847
0
0
-0.0011472
0
3.92744e-07
0.00111388
2.82968e-07
0
0
0
0
-0.00104343
0
0.00101829
0
0
0.000982192
0.000970125
0
0
-0.000934284
0.00184691
2.11346e-08
-0.000902742
0.000887147
-0.000877198
-0.000865063
-0.000849842
0
0.00247193
0.0016262
0
0
0
-0.0030547
0.00149892
-0.00147362
-0.00144595
0
0
0.00137412
0
0
0.00130926
0
0.00126649
0.00124399
0
-0.00119136
0
0
0
-0.00220479
-0.00107715
0
0
0
2.39657e-07
0.00190726
-0.000931552
-0.000910847
-0.000885637
0.00173315
0.000838138
0.000815571
0
0
0
0
-0.00141695
-0.000684733
-0.000666571
0
0
0
0
0
0
0
0.00100022
-0.00096133
0.000911575
0
0
0
0.000747515
0
0
0
-0.000591082
0
0.00103681
-0.000488127
-0.000449962
0.000400045
-3.35514e-06
0
0
-0.000520552
0
0.000327301
0.00013374
0
-5.58122e-05
-4.2523e-05
0
0
-0.000168485
0.000109314
0.000164528
0
0
-0.000251682
-0.000287577
0.000318032
0
0
0
0
0
0
0
0.00101808
0
0
0.000913385
-0.000849567
0
-0.000769582
0
0
0
0
0
-0.000781314
0
0.000766584
9.13171e-06
0
0.000753599
0
0.000738898
-0.00072761
0
0
0
0.000711446
-0.00071037
0
-0.000694798
0
0
-0.000682725
0
0
0
0.000664543
-0.000657897
-0.000653053
0
0
0
0
0.00126287
0.00125231
-0.00248268
0
-0.00122186
0
0
-0.00119334
0
-0.00117388
0.00232804
0
0.00228577
0.0011358
0
0
-0.00110359
0
0
0.00107278
-0.00106225
-0.00105368
-0.00104312
-0.00206549
-0.0010243
0
0
0
0.00097972
-0.000966872
0
0
0
0
-4.69416e-07
0
0
0
-0.00172912
4.58029e-07
0
0.00167147
0.000829781
0
0.00238876
0
-0.00154934
-0.00153297
0.00152336
0
0
0.00143474
0
0.00139383
0
0.00133362
-0.00130874
0
0
-0.00126664
-1.72677e-07
0
-0.00117881
-0.00116342
0.00114369
0
-0.00110758
0
-0.00105167
0.00102648
0.0010207
0
0
0
-0.000895426
-0.00179639
0.00174264
0
0.000825153
-0.00164739
-2.22636e-07
0.000768599
-0.000746926
0.000722305
0
0
0.00065784
0.000642465
0.000628619
0
0
0
0
0
0
0.000956009
-0.000926042
-0.000889419
0.000847352
0
0
0
-0.000702045
-0.000666603
0
0.000583054
0
0
-0.000975903
0
0
-0.000371182
-0.000670494
0
0
3.66586e-06
-0.00019908
-3.68949e-06
-3.71725e-06
-6.62716e-05
-3.83693e-05
1.7934e-05
0
0
8.31078e-05
-0.000111782
-0.000307664
0.000190299
0
0
0.00057548
-0.000931235
0.000700054
0.000712052
0
-0.000811534
0
0
0
-0.00232987
-0.000983545
0
-0.00188253
-1.28316e-05
0.000883294
-1.20693e-05
-0.000887717
0
0
0.000862705
0
0.000853053
0
0
-0.00163335
0
-0.000800085
0
-0.000786252
0
0
0
0
0
0.00151052
0
0
-0.000745797
0
0.00146805
0
0
0
0.000716224
0
0
0.00140149
0
0
-0.00137435
6.9046e-07
5.45594e-07
0.00134041
0.0013334
0
0
0
0
0
0
-0.00252524
-0.00124849
-0.00247912
0
0
0
0
-0.00118195
0
-0.00115963
0.00115243
0
1.03158e-06
0.00223005
0.00222861
0
0.00108633
0
0
0.00104801
-0.00104761
0
0
0
-9.90027e-07
0
0
-0.00094072
0.000937346
0.00280955
0
-0.00368691
0.00183394
0
-0.0017138
0
0
0
-1.27531e-06
0
0
-0.00155826
0
0
0
-0.00142666
0.00283023
-0.00139205
-0.00139887
0.00141396
-0.00135392
0
4.54569e-07
0.00128451
-0.00125615
0.0012709
0.00123488
0.0012131
1.16462e-07
0
0
0.00107469
0
-0.00101582
0.000954812
0.000989516
-2.73423e-07
0
0
0.000941764
-3.69864e-07
-0.000866148
0.000844091
-0.000799602
0
0
0
0
0
0
0
0
0
0
-0.00108224
-0.00105971
0.00213934
0.00200851
-0.000959121
-0.000905146
0
0
0
0.00158358
0
-0.00065949
0
0
0.000566163
0.000537177
0
0.000903761
0.000823521
0
0
0.000290654
0.00025773
-0.000203215
-3.87121e-06
3.87398e-06
3.85041e-06
-3.85752e-06
0
0
0
0
0.000120121
-0.000161572
0
0
-0.000534569
0.00056927
4.74283e-06
-0.000693932
0
0.000754777
0.000785177
0
0
0.00123828
0.00100473
0
0.0018802
0.00179932
1.0236e-05
0.00089
0.00179821
-0.000899154
-0.000904598
8.70917e-06
0
-0.000881596
0.000875825
0.000869624
0.000858315
0
0
0
0
0
0
0
0
0.00081592
-0.000808665
0
0.00080033
0.000794494
0
-0.0015721
0
0
0
-0.00153377
0
0
-0.00150954
0.00150246
0
0.00148264
-0.00293822
-0.00145816
0.0014479
-6.61444e-07
0.00142543
-0.00141684
0.00140131
0
0
0
0.0013676
1.29116e-06
0.00134555
0
0
0.00130839
0.00127701
1.53891e-06
0
0.00248946
0.00123805
0
0.001238
-0.00243636
-0.00120681
-0.00118557
-0.00118142
0
0.00116988
0
0.00113545
0
-0.00111906
-0.00107995
-1.4378e-06
0
-0.0010638
0.00104582
0
-2.31855e-06
0.00198197
0.00200123
-0.00201243
0
-0.00189066
0
0
-0.00182681
-0.0018692
0
0.00185095
0.00338467
0
0
0
-0.00159141
-0.00157146
0.00295372
0.00300194
0.00151313
0.00145752
-0.00148384
0.00145625
-0.00147228
0
-0.00143552
0
-0.00125432
0.00115561
0
0
-0.00112866
0
0.00231394
-3.87417e-07
0
-0.00107884
0
0
0.00101729
-0.00099566
-0.000973891
0.0019031
0.00180214
0
0
0
-0.0016535
0
0
0
0
0
0
0.00253801
0
-0.00249803
-0.00113412
0
0.00109136
0.000998342
0
0.000953807
-0.000932961
0
0
0
0
0.000653774
-0.00123337
0
-0.000546473
-0.000495979
0
0
0
0
0.000261269
-0.000445382
0.000182858
0.000292422
-9.67635e-05
-5.67784e-05
0
0
0
0
0
0
0
0
0
-0.00128454
0
0
0.00071839
-0.000757051
0
0
0.00134206
0
0
-0.000917883
-0.000881026
-0.00178007
-0.000898393
-0.000922421
0.00092785
0.00183837
-0.000907346
0
0
-0.00184901
-0.000917664
0
0
0
0
0
0
0
0
-0.000874561
-0.000869071
0.000865683
0
-0.000855256
0
0.000846803
0.00084416
0
0.000835304
0
0
0
0
0
-0.00161312
0.00159952
0
0.00157586
0
-0.00311881
-0.00154593
-0.0015339
0.00304705
-0.00151623
0
0
-0.00147257
0
0.00290342
0.00144846
0
0
-0.00283379
-0.00137926
0.00136425
0
-0.00135474
-0.00133632
0
0
0.00133329
-0.00129705
0.00126446
0
0
-1.9367e-06
0
0.00122302
-0.0011994
0.00119216
1.7609e-06
-0.0023213
0
0.00115442
0
0
-0.00226098
-0.0021706
0
-0.00218454
0.0019985
0.0020157
0
0
0.00394493
0
0
-0.00198337
-0.0017979
0
-0.00180511
-0.00182984
0.00346234
0
-0.00163471
-0.00165348
-9.0291e-07
-8.02602e-07
0.00161882
0
0
0
-0.00154175
-0.00144968
0
0.00125803
-0.00137254
0
0
0
-0.00120593
-0.00118783
0
0
-0.00115531
0
-0.00106062
0
0.00107671
-0.00210249
-0.00201094
0
-0.00178096
0
1.09741e-06
0
0
-0.00160137
0.0015658
-0.00150491
0
-0.00285876
0
0.00133779
0.00121697
-0.00127183
-0.00122387
-0.00115104
0
-0.00104686
-0.000999573
-0.000917928
0
0
0
-0.000758516
0.00069681
0.000646819
0.000619195
-0.000556013
0
0
0
0
-0.000318656
3.84096e-06
-0.000225018
-0.000188583
0
3.8251e-06
-4.65821e-05
1.86418e-05
-4.20701e-05
0
0
0
0
0.000460716
0
0.000568729
0
0
-0.000705035
0
0
0
-0.00129407
0
0
0.000974458
0
0.000959833
0.000960421
0.000994235
0
-0.000995568
-0.000996794
0
0.000997219
0.000990885
0
0
0
0
0
0
0
-0.000948241
0
0.00187395
0
-0.000928644
0.000922076
-0.000918598
0.000913868
-0.000908384
0
0
-0.000894493
-0.000888084
-0.000882424
0
0
0
0.0008609
-0.00171001
0.00170589
0
0
2.29342e-06
0
0
-0.00324178
-0.0016181
-0.00160135
0
0.00156277
0
-0.00155654
-0.00154914
0
0
0.00150783
0
0
0
0
0.00140884
-0.00142319
0.001437
0
2.46465e-06
0
0.00137472
-0.00141237
-0.0013632
0
-0.0012926
0.0012974
0
2.02503e-06
1.99395e-06
0
0
0.00124429
0
-0.00120697
0
0
0.00237439
-2.72255e-06
0.00216756
0
0
-0.00212689
0
0
0
0
0
0.00388661
0.00198068
-0.00187271
0
0.00175713
0.00182598
-0.0035351
-0.00173094
0
0.00165451
0
0
0.00165423
0.00162041
0
-0.00290682
0.00150039
0
-0.0013803
0
0
0
0
0.00127567
2.97105e-07
0.00122023
0
0
0.00110178
0
0.00108356
0
0.00198473
0
9.38511e-07
0
0
0.0017257
-1.29197e-06
0.00170304
0
0.00314574
0
-0.00143909
-0.00133708
0.00136748
2.67033e-06
0
0
0.00115632
0.00108694
0.00103043
0.000934588
0
-0.000867219
-0.000828616
0.000751939
-0.000730452
-0.000674984
0.000613048
0
0
0
0.000408668
-0.000364313
0.000314421
0.00026857
0
0
0.000132725
3.6733e-06
-0.000103579
1.6842e-05
0
0
-0.000138813
0
-0.000401078
-0.000232736
0
0.000611635
0
-0.000680309
-0.000715424
-0.000707142
0
0
-0.000908068
0
-0.000924238
0.000954716
0
0
4.44702e-06
0
0
0.00106708
0
-0.00107514
-0.00107079
0.00106533
0
0
0.0010446
0
0
0
7.82567e-07
0
-0.00201743
0
0
-0.000992207
0.000987456
-0.000980266
0
0
0
0
0.000948287
0.000942164
0
0.00092968
0
-0.000920237
0.00091066
-0.00181895
0
-0.0008959
0.00266675
0
0.00174675
3.15882e-06
3.15007e-06
0.00341149
0
-0.00165598
0
0
-0.00164554
0
0
0
-0.00158373
0
0.00153888
0
-0.00150426
0.00152763
-2.80517e-06
0
0.00148924
0
-0.00148738
0.00149371
0.00145123
0
0
0.00137441
0
0.00132694
0.00132368
-0.00133953
0