/*--------------------------------*- C++ -*----------------------------------*\
  =========                 |
  \\      /  F ield         | OpenFOAM: The Open Source CFD Toolbox
   \\    /   O peration     | Website:  https://openfoam.org
    \\  /    A nd           | Version:  8
     \\/     M anipulation  |
\*---------------------------------------------------------------------------*/
FoamFile
{
    version     2.0;
    format      ascii;
    class       volScalarField;
    location    "100";
    object      wpod_3;
}
// * * * * * * * * * * * * * * * * * * * * * * * * * * * * * * * * * * * * * //

dimensions      [0 1 -1 0 0 0 0];

internalField   nonuniform List<scalar> 
12225
(
1.10891e-16
-3.76954e-17
-1.6739e-19
5.31676e-17
-5.78986e-17
2.65355e-17
3.79163e-17
-2.26847e-17
-2.76726e-17
3.28145e-18
2.68168e-17
-1.9179e-17
-3.64306e-17
2.60906e-17
-2.00201e-17
-3.05139e-17
2.14001e-17
2.63258e-17
1.06076e-17
-1.60741e-18
-8.97906e-18
-2.59863e-18
-1.52652e-17
3.39618e-18
-1.85265e-19
-1.88211e-18
-9.76639e-18
7.51955e-18
-1.46952e-19
3.2726e-19
-3.70941e-18
-3.03862e-18
1.43441e-17
3.68108e-18
7.31304e-18
-6.34398e-18
8.54999e-18
-4.1533e-18
-4.34588e-18
-6.31099e-18
-2.76407e-18
1.03499e-17
-8.48932e-18
1.21954e-17
3.1247e-18
-7.11957e-18
-4.33046e-18
8.84582e-18
-5.03549e-19
-3.78291e-18
9.82264e-18
-2.49791e-18
-4.67992e-18
-1.80494e-18
-2.65914e-18
-4.326e-18
5.69261e-18
8.59422e-19
1.65574e-18
-5.46079e-19
1.87393e-18
-1.98467e-19
6.97455e-19
-1.14955e-18
5.1338e-18
-4.18377e-18
3.2116e-18
2.74003e-18
-3.9917e-18
9.09454e-19
-1.16844e-18
2.92023e-18
-4.63096e-18
-3.13147e-18
-1.93618e-18
1.4825e-19
1.37031e-18
8.62745e-19
4.5446e-19
-2.74097e-19
9.94217e-19
7.3629e-19
1.61511e-19
2.74556e-19
8.67037e-19
4.58309e-19
-3.14964e-19
-2.57306e-19
2.56226e-19
3.17325e-19
3.18082e-19
2.82959e-20
-2.3922e-21
-2.84182e-20
-8.80738e-20
8.03406e-20
-6.54506e-21
-5.74852e-21
0
0
0
0
0
0
0
0
0
0
0
0
0
0
0
0
0
0
0
0
0
0
0
0
0
0
0
0
0
0
0
0
0
0
0
0
0
0
0
0
0
0
0
0
0
0
0
0
0
0
0
0
0
0
0
0
0
0
0
0
0
0
0
0
0
0
0
0
0
0
0
0
0
0
0
0
0
0
0
0
0
0
0
0
0
0
0
0
0
0
0
0
0
0
0
0
0
0
0
0
0
0
0
0
0
0
0
0
0
0
0
0
0
0
0
0
0
0
0
0
0
0
0
0
0
0
0
0
0
0
0
0
0
0
0
0
0
0
0
0
0
0
0
0
0
0
0
0
0
0
0
0
0
0
0
0
0
0
0
0
0
0
0
0
0
0
0
0
0
0
0
0
0
0
0
0
0
0
0
0
0
0
0
0
0
0
0
0
0
0
0
0
0
0
0
0
0
0
0
0
0
0
0
0
0
0
0
0
0
0
0
0
0
0
0
0
0
0
0
0
0
0
0
0
0
0
0
0
0
0
0
0
0
0
0
0
0
0
0
0
0
0
0
0
0
0
0
0
0
0
0
0
0
0
0
0
0
0
0
0
0
0
0
0
0
0
0
0
0
0
0
0
0
0
0
0
0
0
0
0
0
0
0
0
0
0
0
0
0
0
0
0
0
0
0
0
0
0
0
0
0
0
0
0
0
0
0
0
0
0
0
0
0
0
0
0
0
0
0
0
0
0
0
0
0
0
0
0
0
0
0
0
0
0
0
0
0
0
0
0
0
0
0
0
0
0
0
0
0
0
0
0
0
0
0
0
0
0
0
0
0
0
0
0
0
0
0
0
0
0
0
0
0
0
0
0
0
0
0
0
0
0
0
0
0
0
0
0
0
0
0
0
0
0
0
0
0
0
0
0
0
0
0
0
0
0
0
0
0
0
0
0
0
0
0
0
0
0
0
0
0
0
0
0
0
0
0
0
0
0
0
0
0
0
0
0
0
0
0
0
0
0
-0.00188169
-0.000211345
0
0
0
-0.000189882
0
0
0
0
0.00109356
0
0
0
0
0.000747719
0
0
0
0
0
0
0
0.000668427
-0.000611233
0.000547174
0.0004987
0
0
-0.000393817
-0.000370712
0
0
-0.000318223
0
0
0.000282892
0
0.000267855
0.000522163
0
0
0
0
0
0.000480223
0.000473673
0.000470804
0
-0.00046862
0
0.000462354
0.000461408
0
0
0
0.000457209
0
0
0
0
0
0
0
0
-0.000457243
0
0
0.000459852
0.000463888
0
-0.000465275
0.000468135
0
-0.000469943
0
0
0.000476949
0
-0.000481735
0
0.0004863
0.000486364
0.000489386
0.000981944
-0.000983735
0
0
0
-0.0009931
-0.000993744
0.000996555
0
-0.000996117
-0.000995821
-0.000994185
0
0
0
-0.000973256
0
0
0.000942069
0
0
0.000890227
0
0
-0.000813133
-0.000780164
0
0.000704417
0
-0.000614763
0
-0.000512955
-0.000460985
0
0
0
0
0
0
0
-0.000128471
9.84847e-05
0
0
0
0
-7.88618e-05
0
0.000159979
-0.000200908
0
0
0
0.000315401
0.000330121
0
0.000346362
0.00035013
-0.000339489
0
0
-0.000277777
0
0
0
0
0.000194003
0.000185883
0
0.000165003
0
0
0.000143196
0
0.000127304
0
0
0.000108008
0
9.77857e-05
0
0
0
-8.35079e-05
0
7.08289e-05
0
0
0
0
0
0
0
-7.79053e-05
0
0
0.0042225
-0.00255275
0
0.00101471
0
0.000385296
-0.00066467
-0.000593696
0
-0.000530209
-0.000261462
0
0
0
0
-0.000266013
0
0.000502569
0
0
-0.000464686
0
0.000438288
-0.000212901
0.000205424
-0.000196303
-0.000188786
0
0
0.000174878
-0.000167458
0
0
0.000155912
0
0
-0.000146583
0
0.000141088
-0.000282719
0
0
-0.000548927
-0.000547576
-0.000546486
0.000269724
-0.000270756
-0.000801583
0.000531737
0.000268166
0
-0.000270031
0.000265487
0
0
0
-0.000272203
0
0.000542017
0
0.000544385
0
-0.000549451
0
0.000554777
-0.000277605
0
-0.000565035
-0.000286958
-0.000288059
0
-0.000287156
-0.000293638
0
0.000295523
-0.000590291
0
-0.000299279
0
0.000898942
0
-0.000911985
-0.00030391
0.000302993
0.000607457
-0.000611588
0
0
0
0.00183857
0.000614713
-0.000616532
0
-0.000608131
0.00061163
0.000610417
0
0
0
0.000600008
0
-0.00118083
-0.00174064
0.00115084
0
0.000555184
0
0.00108396
-0.000530917
-0.000524047
0
-0.00150693
0.000981076
0.000478228
0
0.000449274
0.00131418
0
0.000837176
0.000807787
0.000779201
0
0
0
-0.000341395
-0.000326934
0
-0.000616424
-0.000597484
0
-0.000546577
-0.00106814
0.000518801
0.000503407
0
0
0
0.000416729
-0.00041464
-0.000788427
0.000376042
-0.000368249
-0.000360718
0
0
0.000346189
0
0
-0.000640083
0
-0.000325843
0.000309507
0
-0.000293706
0
0
0.000279103
-0.000576476
0.000275381
0
0
-0.000262043
0
-0.000256989
0
0
0
-0.000233914
0
0.000242651
0
0
-0.000456189
0.000469318
0
0
0
-0.00109891
0
0.000663833
4.77851e-06
0.00471062
0
-0.00190665
0
0
1.05338e-06
0.000478306
0.00043873
0.000412851
0
0
-0.000367872
-0.000716666
0.000695352
0
0.000649522
-0.000315773
0
0.000581913
0.000282337
-0.000540262
-0.000264001
0
0.000495828
0.000481068
0
0.000458855
0
0.000440024
0.00021647
0
0
0
0
0
0
0.000391461
-0.000590149
0
0
0
2.63605e-06
0.000393659
0.000784356
-0.000786079
-0.000390163
0.000391259
-2.91026e-06
0.000389461
0
0.000391164
-2.97814e-06
0
0
-0.000398617
0
0
0.000401988
0.000812292
-0.000411059
0
0.000416672
0
0.000419156
0.000426402
-0.000852446
-0.000426224
0
0.000871722
0
0.00133335
0.000895674
0.00090006
-0.000902001
0.00135936
0
0
-0.000922574
-0.00138549
0
0.000466469
0
-0.00140755
-3.32422e-06
3.14981e-06
0.000949197
0
-0.000942987
-2.39591e-06
0
0
0
0.00094473
0
0
0
0
0
0.000930521
0
0.000921003
0.000904222
-0.000900606
0
-0.000878034
0
-0.000852794
0.000838437
0.00250882
0
0.00246953
0.000814795
0
0.00155823
0.00152112
-0.00223777
0
-0.000727196
-0.000709435
-0.00207262
0
0
0
-0.000639777
0
0
0.000591483
0.000584566
0
0
0.00110244
0
-0.00105411
-0.00102859
0
0
0.000959648
-5.0194e-06
-4.77339e-06
0
0.0017851
0
0
0
-0.000849847
0
0.00164289
0.000825033
0
0.000826397
0
0
0.00232055
-0.00154156
0
-0.00154105
0.000785332
0
0
0
0.00216318
0
0.00071821
0
0
0
0
0
0
0.00135339
0
0.0006643
-0.002025
0
0
0.00124253
0.00119798
-0.00116453
-0.00116062
-0.00645516
-0.00650169
-0.00239616
-0.000818055
0
0.00107102
-0.000464452
0
-0.000380487
0
0.000659431
0
0.000302171
0.00058143
-0.000559746
0
-0.000517864
0
0
-0.00046616
0
4.12732e-06
0
0
-3.44119e-06
-0.000390352
-0.000377199
-0.000372843
0
-0.000709916
0
-0.000334043
0
0
0.000317845
0
-0.000314671
-2.25985e-06
0.000631795
-0.000629871
0
0
-0.000319112
0
-0.000323316
0.000323233
0.000323228
0
-0.000324644
-0.000326045
0.000649055
-0.000328179
-0.000329307
0
0
0.000336605
0
0
-0.000687758
-0.000692391
0
0
0
0
-0.000720719
0.000721375
0.000730417
0.00146879
0
-3.46132e-06
0
-0.0007573
-3.20084e-06
-0.000767492
0.000772345
-2.91546e-06
0
0.000777761
0.000785776
0.00157399
0
-0.000793099
0
0.00159946
-0.000802784
0.00080562
-0.000808456
-0.00160992
0.000807192
-0.000806708
0
0.00161287
0
0.00160567
-0.00160464
-0.00160335
0.00159867
0.00159055
0
0.000791004
0
0
0.00155316
0
0
0.00151881
0
0
0
-0.00289653
0
-0.00283774
-0.00140503
-0.00138977
1.9325e-06
-0.0013328
0.00262625
0.00129298
0
0.00126068
0.00247007
0
0
0
-3.13003e-06
0
0
0
0
-0.00211571
0
0.00204543
0
0.00197464
0.000961736
-0.00188911
0.00187293
0.000922518
-0.000910722
0.000890805
0
0.000877192
0
0
0
0.00167104
0
3.72146e-06
0
0
0.00162752
0
0
-0.00156089
-2.4481e-06
0
0.00155175
0.00156065
0
0
-0.00152908
1.26579e-06
0
-0.0014678
0
0
0
0.00143486
0
0
-0.00141514
0
0
0.00280076
0
0
-0.00132775
-0.00259048
0.00127335
0
0.00424829
0.00361132
0.00207759
0.00147722
0
-0.0019565
3.29058e-06
0
0
0
-0.000586002
0
0
0
0
0
0.000438869
0.000421741
0
0
-0.000391866
0.000762868
0
0.000357154
-0.000352307
0
0.00101041
-0.000659209
0.000643964
0.000315575
0
0.00088856
0
0
-0.000279821
0.000551876
0.000829304
-0.000830116
-0.000279796
0.00056297
0
0
4.72366e-06
0
-0.000569837
-0.0005737
-0.000576876
0
0.000581825
0
-0.00118358
0
0.000597867
0
-0.000607795
0
0
0
0
0
0
0
-0.000646882
0
0
-0.000665091
0
-0.000674492
-0.000676103
-0.00068272
0
0
-0.000697373
0.00139726
0
-0.00212079
0
-0.00071496
0
-0.000723456
-0.00144879
0.000728835
0
-0.000734186
0.00146971
0
0
0.00147449
0
-0.00147483
0
-0.00147399
0
-0.00293229
0.00146042
0.00291928
-0.0014527
-0.00144663
0
5.88862e-08
0
0.00142447
-0.00141767
0
0
-0.00138684
0.00137537
0
0
0.00132996
0
0.00129498
0
0.001267
-0.00124768
0.00246053
-0.00120789
-0.00119076
0
-0.00115708
-0.00113786
0
0
-0.00217709
0.00106767
-0.00209678
0
0
0
0.00393008
0
-0.00190328
0
-0.00184484
0
0.00178182
-0.00175796
-0.00173655
0.0017187
0
0
1.80299e-06
0
0
0
-0.00159618
0
-0.00155923
0
-0.00155345
-0.00154817
0.00155057
0
-0.00151731
0.00150172
0
0.00149899
-0.00297926
0
-0.00295287
0.00147712
-0.00144737
0
0.001421
0
0
0
-0.00139714
0
0
0
0
0
-0.00134671
0
-0.0026378
0
0.00254808
0.00249774
0
0
-0.00304879
0
0
0
3.89515e-06
4.02677e-06
-0.000687352
0
0
0
0
0
-0.000904788
0
0.000830158
-0.000403127
-0.00038792
0
0
0.000354993
-0.000345756
0
-0.000328961
0.000634014
0
-0.000619679
0.000611902
-0.00059929
0
0
-0.00055015
0
0
0.00051104
-0.00102402
-0.00051661
0.00103401
-0.000519214
0
0
0
0.000539614
0
0.000541258
0.000543725
0.000545954
0.000544449
-0.000553429
0
0.000562832
0
-4.22123e-06
0
0.0011607
0
-0.000588204
0
0
-0.00120607
0
0
0.000621244
0
0
-0.00126549
0
0.00128225
0.000648289
0
-0.00131211
0
0.00133143
-0.00267437
0
0.00135039
0
0
0.00136646
0
0.00138001
-0.00137975
0
0
-0.00140337
0.00140179
0.00139887
0.00140215
0
0.00140403
0.00139854
0
0
0.00139341
0
-0.00138542
0
0.00137264
0
1.21781e-07
0
-0.00135602
0
0
0
0
-0.00130605
0
0
-0.00253925
0
0
0
-0.00239322
0
-0.00232833
0
0.00225565
-0.00222848
0
0.00216959
0
0
0.00416328
-0.00203673
0.00199689
0
0
0
-0.00376326
0
0.00181631
0
0
0
0
0.00169139
0
-0.00165402
0.00162644
0.00161014
-0.00158695
0
0
0
0
0
0
0
0.0014938
0
-0.0014886
0
0.00438712
0
-0.00289311
-0.00144217
0.00142602
0
0.00282772
0
0.00280114
0
0
0
0
0
-0.00269074
-0.00266266
0
0
0
0
0.00256261
0
0.00505051
-0.00249508
-0.00244824
-0.00240335
-0.00234551
0
0.00264523
0
0.00249549
0.00200337
-0.000832713
-0.000714742
-0.000629149
-0.00114122
0
0
0.000910159
0
0.00165983
0
-0.000775306
0
0
0.000685068
0
0.000646677
0
0
0
-7.80407e-06
0
0
0
0
0
0
-0.000506715
0
0.000483364
-6.49871e-06
0.000486601
0
-0.000494013
0.000498032
0
0
0
0
0
0
-0.000520595
0.000523076
-0.00053056
0.00105761
0
-0.00107711
0.00108748
0.000544579
0
-0.00056369
0
0.000573477
0
0
0.00117591
0
-0.0011897
0
0
0
0.00246667
0.00123845
-0.00125222
-0.00125602
0
0.00128139
0
-0.00129728
3.99145e-06
0
0
-0.00131716
0
-0.00132894
0
0.00134298
0.00134654
0
0
0
-0.00136168
-0.00136101
-0.0013662
0
0
-0.00136294
-0.00136424
0
0
0
0.00268691
0
-0.00132729
0
0.00133041
0
-0.00263101
-0.00260879
0.00260328
0
0
-0.00252876
0
-0.00248433
3.67298e-07
0.00242717
0
0
0.00231546
0
0
0.00221593
-0.00219227
0.00432154
0
-0.00212063
0
0
-0.00404615
0.00197684
0
0
0
0
0.00183657
-0.00180515
-0.00177389
0
0
0
-0.00167161
-0.00329165
0
0.00482552
-0.00159072
-0.00157086
0
0.00308529
0
0
0
0
0.00293375
0
0
0
0
0
3.75659e-07
-0.0028282
0.00281326
-0.00280767
0
0.00275687
0
-0.00274657
-0.00272401
0
0
-0.00265479
-0.00263269
-0.00261602
1.34285e-06
0.00258152
0
0
0
-0.00247813
-0.00247324
0
-0.00487136
2.44723e-06
2.7853e-06
0.00231107
0.00452192
0.00693773
0
0
-0.00468186
-0.00189422
1.03458e-05
0.00135676
1.04297e-05
0.00106868
0
0
-0.000845918
0
-0.000771971
0
0
0
0
-0.000641186
0
-0.000601098
0
0
-0.000554066
-0.000554915
-0.000539139
-0.000531274
0
-0.000510915
-0.000499297
-0.000487465
0.000481854
0
-0.000461849
-7.24375e-06
0.000456169
0.000461732
0
-0.000475591
0
0
0.000981584
0.000990494
0
0
0.00151438
-0.00152662
0
-1.04163e-05
0
0.00105682
-0.00106715
-0.0010778
0
0
0
0.00111102
0
-0.00113131
0
0
0.00116859
0
0
0
-0.0024069
-0.00121571
0
5.17891e-06
0
-0.00124668
0.00125807
-0.00126569
0.00127683
0
-0.0012892
3.4349e-06
0
0
-0.00131193
-0.00132263
-0.00132523
-0.00132587
0.00132572
0
0
0
0
0.00267867
0
0
0.00401565
0
-0.00264855
0
-0.00264047
0
-0.00259706
0
-0.00260045
0
0.00257098
0.005113
-0.0025451
0
0.00250654
0.0024768
0
0.00243186
0.00240971
-0.00238206
0.00234826
-0.00231112
-0.00226724
0
0
-8.59663e-07
0
-0.00211592
-0.00209475
0
0
-0.00200723
0.0019737
0
0
0
-0.00184944
-0.00183131
0
0.00176991
0
0
0
0
0.00164339
0.00161519
0.0031878
-0.00315862
-0.00312816
-0.00309471
0
-0.0061042
0
0
0
0
-0.00290651
0
0
0.00284883
0
0
-4.29324e-07
0.00558258
0.00276127
0.00276996
-0.00274403
-0.00542702
0.00269195
1.44056e-06
0
0
0
0.00261728
0.00259255
0.00256607
1.83886e-06
0
0
0
0
0.00242631
0
0
0.00238052
0.00234566
0.00230861
-0.00224262
-0.00220242
-0.00647742
-0.00424533
0
0.0022615
0
1.17994e-05
0.00127324
0.00111563
0
0.000874593
0
0
0
0.000691817
0
0
-0.000622189
0
0
0.000558967
0
0.000533112
0
0.0010418
-0.000509869
9.56417e-06
9.34233e-06
0.000488829
0.000485788
0.000939392
8.59426e-06
0
0
0.000855694
-0.000436483
-0.000443134
-0.000453217
0
0.00138187
-0.000924861
-0.000932506
-0.000955864
-0.000965064
0
0.000968593
-0.00196303
0.000995234
0.000990012
-0.00200696
0
0
0
0
0.00105425
0
0
-0.00109598
0
0.00222548
0
-0.00113002
0
0
0
0
0.00118441
0
0.00119793
5.39805e-06
0
0.00123065
-0.0012396
0.00124722
0
0
0.00253575
0.00127592
0
0
0.00386545
0
0.00389831
0.00130072
-0.00130079
-0.00260724
0
0
0
-2.8101e-06
0.00262883
0
-1.89555e-06
0
0.0026187
0.00260168
-0.00259273
0
0.00256263
0
-0.00254523
0
-0.00252879
-0.00252226
0.00250097
0
-0.00493706
0
0
0
0
0
-0.0023096
0.00228693
0.00224106
0
0
-1.59371e-06
0
-0.00208477
0.00413472
0
-0.00402862
0.00593807
0
0.00379067
0
0
0.00181105
0.00178963
-0.00351907
-0.00347129
0
0
0
0
0
0
-0.00632848
0
2.13881e-06
0.00307355
-0.00304774
0.00302452
0
0
0
0
-0.00290018
0
-0.00281582
-0.00562994
0.00282315
0
-0.00277443
-0.0027649
-0.00272407
-0.00275135
0.00272244
0.00269022
-0.00267075
0.00535854
0
0
0.00260276
-0.00260975
0
-0.00507192
0.00254143
0
0
0
-0.00482088
-0.00479853
0
0
0
-0.00461989
-0.0045239
0.00438636
0
0
0.00406469
0
0.00220424
0
0.00145202
-0.00121568
0.00102728
0
-0.000811721
0
0
0
-0.000632995
0.000604002
0
0.00112436
-0.000537217
0
-0.000517704
0
-0.00049804
-0.000482078
-0.000968721
0.000971333
0.000492934
0.00143941
-0.000474566
0.000902421
-0.00132592
0.000436485
0
0.000820552
-0.000837025
-0.000828268
0
0
0.000874503
-0.000898061
0.00180257
0.00182104
0
0
0
-1.27104e-05
1.23849e-05
-0.000956715
-0.000975765
0.00195866
0
0
0
0.00101997
-9.91555e-06
0
0
0
0
-8.4026e-06
0
0.00222371
0
0
0
0
0
-0.00117071
-0.00236566
0.00119247
0
0.00241788
-0.0024315
0
0.00245618
-0.00247651
-0.003753
0
0
0
-0.00254981
-0.00255791
-0.00512095
0
0.0025594
4.43554e-06
0.00258043
0.00257829
0
-0.00520412
-0.00519362
0
-0.00260254
0
0
-0.00258119
1.38189e-06
0.00254369
0
0
0.00504125
0
1.32462e-06
0
-0.00247418
0
0.00243269
0
0
0.00236151
0
0
0
-0.00225058
-0.00220342
0
-0.00428101
-0.00210384
0.00415209
0.00204616
0.00203367
-0.00404634
4.14394e-06
-0.00390497
-0.00380793
-0.00747916
0.00369527
0
0.00355605
0.00351099
0.00345645
5.76408e-06
0
0
0
0
0
0
0.00626497
0
0.00613911
0
0.00602883
0
-0.00296142
0
0.00290612
0
0.00578115
0
0.0027985
1.44249e-06
-0.00564207
0
0
0
0
0.00274189
0
0
0
-0.00797296
-0.00528396
0
-0.00259827
0.00261255
0.00513921
0.00507206
0.0050622
0.00504421
-0.00493838
0
5.68799e-06
0.00955072
0
0
0
6.53404e-06
6.825e-06
-0.00434323
0
0.00565013
-0.00396003
0
-0.00215612
0
-0.00136165
0
-0.000961308
0
0.000730612
0
0
0
-0.000556844
-0.000551091
0
-0.000512284
0.000496994
0
0
0
0
0.000461041
0.000461322
-0.000463632
0
-0.000907032
0.000863416
-0.00170352
0.000841415
0
0
-0.000809112
0
0.000828236
-0.000825763
0
-0.00172169
0
-0.000889004
-0.000894341
0.000887692
0
0
-0.000928303
1.26465e-05
0.00094682
-0.000944626
-1.16946e-05
0
0
-0.00098771
-0.0010095
-0.00102069
-0.00102201
0
0
0
-0.00107392
0
-7.97687e-06
-0.00109933
0.00111098
0
-0.00226201
0.00228474
0.00346293
0.0034887
0
0
-0.00239165
0.00240979
0
-0.00243882
0.00245075
0.00247348
0
0
0.00250745
0
0.00253156
0.00253404
0.00253881
-0.00254177
0.00254853
-0.00256508
-0.00511802
0
0.00256746
0.00256328
0
0
0
-0.00253017
0
0.00253558
-0.00251202
0
0
-0.00249626
0
0.00495409
0
0
0
0.00239557
0
0
-0.00699155
0
0
0
0.00663245
0.00217518
0
0.0042277
0.00416398
-0.00823226
0.00404582
-0.00402444
5.48713e-06
0.00393575
0
0.00377468
0.00369272
-0.00366973
0
-6.91171e-06
-0.00693692
0
0.00337102
0
0
0
0
0
0
-0.00311092
0
-0.00302976
0.00299923
-0.00297157
0
0.00293059
0
-2.03508e-06
0
-1.91013e-06
0
0
0.00279636
0.00281037
0
-0.00549147
0
0
0
0
-0.00534944
0
0.00525928
6.32992e-06
0.00523373
0
0
-0.00513909
-0.00506806
-0.00504051
-6.50057e-06
0.00491225
0
0.0047948
-0.00953777
0
0
-0.00465167
0.00915714
7.40173e-06
0
0
-0.00555563
0.00397771
-0.00273592
0
0
1.97094e-05
0
0
0
-1.57028e-05
0
0
0
0.000528813
0.000987476
0
0
0
0.000890162
0.000881094
-0.000870383
-0.00085946
0
0
0
0
0
-2.3018e-05
0.00081166
0
0
0
0
0
0
0.000833252
0
0.00085701
0
0
0
-0.000886824
0
0
0
1.26973e-05
0
0.00186501
-0.000948324
0
0
0.000978903
-0.000979457
0
0.00101228
0.00101389
0
0
0
0
-0.00107755
0.00108923
-0.00110068
0.00220466
0.0044638
-0.00226664
-0.00228795
-0.00230442
0
0
0
0
0.002393
0
0
0
-0.00244399
0
-7.30943e-06
0
-0.00249906
0
-0.00251851
0
0
0
0.00253629
0
0
0.00252724
0.00252927
0.00253982
0
2.69073e-06
0
-0.00250574
0
0
0.00249115
0
0
-0.00243833
-0.00243029
0
0
-0.00236942
0.00468182
0
0.00459754
0
0
0.00441887
-0.00435001
-0.00428677
0
0
-0.00412668
0.00408242
-0.00400743
0.00394182
0.00390958
0.00387419
0.00382052
0
-0.00363817
-0.00361068
0
-0.0034855
8.21625e-06
-0.00335405
0
0
0
0
0
0
0.00310114
0
0.00303209
0
-0.00296009
0
0
0.00288999
0
-0.00572423
0
-0.00284579
0
0
0
0
0
0.0109119
-0.00546803
-0.00546795
0
0.00536302
0.00535098
0
0
7.44287e-06
-0.00518022
0
-0.00515386
0
0.00510004
0
-0.00995039
0
-0.00487043
0
0.00478228
0
0
0.00462265
-0.00458796
8.0136e-06
0.00432646
0
0
0
0.00262068
0
0
0.00116375
0
0.000785055
0
0.000589034
0
0
0
0
-0.000946512
0.000895597
0
0
-0.000875718
-0.000858113
3.1148e-05
0.000832883
0
0
0
0
0
-0.00154817
0
0
0
0
0.000776919
0.000787947
0
0
0.00082136
0
0
-0.000845969
0
0
0
0
0
1.25851e-05
-0.000901392
-0.000922394
0
-0.00092977
0
0
0.00097276
-0.00194758
0
-0.00100628
0
0
0
0
0
0
0.00215263
-0.00218933
-0.00220997
-0.00222042
0.00223928
0
0
0
0
-0.00234196
-0.00237343
0.00238309
-0.00239304
0
0.0048468
0
-0.00244651
-0.00244956
0.00494085
0
0
0.00247906
-0.00249356
0.00249688
-0.00250294
0
0
-4.29461e-06
-0.00250591
-3.71243e-06
0
3.33045e-06
0.00247873
3.15106e-06
0
0
-0.00246588
0
0
-0.0048106
-0.0023948
0
0
0
-0.00462425
0
0
0
0
-0.00872457
0.00427782
9.18564e-06
-0.0041638
0
0.00406915
0
-0.00395735
-0.00389307
0
-0.00381312
-0.00753394
0
0.00359997
0.00710043
0
0
0.00676601
9.25586e-06
0
0
0
0.00315557
0
0
-0.00611522
-0.00303412
-0.0030005
0
0
0.00287467
0
0.00283762
0
0.00282634
0
0.00562441
0.00558522
-0.00547752
0
0
0
-0.00541135
8.31762e-06
0.0054244
0
-0.00534327
0
0
0
0.00521341
0
0.00515516
0.00513539
0
-0.00506094
0.00503702
8.49034e-06
0.00492423
8.45804e-06
0
-0.00479115
0
0
0
0.00456891
8.64615e-06
-0.0087271
0
-0.0050049
-0.00328348
0
0
0
0
0
-0.000736271
0
-4.02441e-05
-0.00103283
0
0
0
0
-0.00172141
0
0
0
0
0.00161283
0
0
0
0.000766857
0
0
0.000781845
0
0.000761342
0
0
-0.000802377
-0.00159928
0
0
-0.000829917
0
0.00082634
0.000847468
-0.00083988
0
0
0
0
0.000889577
0.000897834
0
0
0.000925359
0
0
0
0.0019364
0
0
0.00198684
0
0.00202947
0
0
0
-0.00213065
-0.00214059
0.0021578
1.36453e-05
-0.00221599
0
0
0
0
0.00230659
0.00231412
-0.00234811
0.00236722
0.00237295
-0.00239346
0
0
7.98863e-06
-7.6115e-06
0.00243558
-0.00244372
-6.70676e-06
0.00246159
-0.00492407
0.00247019
0
0.00246806
-0.0024756
0
-0.00247436
0
-0.00246236
0.00244687
0.00244361
-0.00486335
0
0
0.00482426
0
0.00474499
0.0047156
0
0.00464623
0
0
-0.00449785
0
0
0
1.07435e-05
-0.00423062
0.00417978
0.00412726
0
-0.00802357
0.00395845
0.00389918
-0.00383592
0
0.00374247
0.00370012
0.00361182
0
-0.00348312
0
0
-0.00666243
0.00327839
0
0
0
-0.00309874
0
0
0.00299829
0.00298222
0.00589721
-0.00581509
0.00574405
-0.00284842
0
-0.00564605
0
0
0
-0.00554694
-0.0110614
0.00545328
0.00542691
-0.0054127
-0.00539485
0.00538504
9.6326e-06
0
0
-0.00531758
0
0.00526458
0
0
-0.00518117
-0.0103382
0
0
0.0100326
-0.00501364
0.00497569
-0.00494906
0.00487067
0.00483895
0.0096134
0
0
0
-0.00457655
0.00452153
0.00441977
0
0.00460369
0.00301542
0
0
0
0
0
0
0
-0.00111347
0.00102733
0
0
-0.000825472
0
0.00161547
-0.000780106
0
0
0
-0.00080035
-0.00076612
0
0
-0.000787705
0.000761586
0
0
-0.00077864
-0.000803107
0
0
0
0.00082226
0
0
-0.000822631
-0.000828789
-0.00084883
0
0.000859643
0
0
0
-0.00174377
0
-0.00177331
0
0
-0.00182743
0
-0.00186412
0.0018849
0
0.00192753
0.00194767
-0.00198739
0
-0.0040342
0
0
0.00206359
0
1.46709e-05
-0.00215211
1.37855e-05
0
0
0
0
0.00224799
0
-0.00228749
0
0
-0.0023585
-0.00236197
0
0
0.00237967
-0.00477624
-8.0158e-06
0.00241389
-0.00242448
0.0024248
0.00243472
0.00242428
0
-0.00729376
-0.00487707
0
0
0
0.00972927
-0.00483309
0.00480713
0.00481982
0
0
-0.00476843
0
0
-0.00465263
0
-0.00459216
-0.00452236
0
0.00443639
0
0
0
0.00849427
0.0041724
0
0
0
1.07362e-05
-0.00784017
0.00384473
0.0038055
0.00373375
-0.00738373
-0.00362467
-0.00357183
0
0
0
0
0.00655962
0.00324383
0.00319531
0
0
0
0
0
0
0
-0.0057992
0.0057536
-0.00570434
0
0
0
-0.00557959
0
0
0
0.00548522
0
-0.0108256
0.00537806
0.00536269
-0.00535322
1.08348e-05
0
0
0.0106048
0
-0.0104165
-0.00515395
0
0.00517361
0.00516982
0
0
-0.0100461
0.00499617
0.00496405
0
0
-0.00486066
-0.00482318
0.00476966
0
0
0
0
0
0
0
-0.00546691
0
0
-0.00206833
0.00165072
0
0.00117979
0
0
0
0
0
0.000773225
0
-0.000730307
3.76077e-05
0
-0.000711981
0
-0.000724316
0.000755746
0
0
0
-0.000762926
0.000746724
0
0.000778008
0
0
0.000775217
0
0
0
-0.000796601
0.000815063
0.000820526
0
0
0
0
-0.00166616
-0.00168227
0.00338998
0
0.00173596
0
0
0.00178903
0
0.00181823
-0.00365297
0
-0.00372698
-0.00188321
0
0
0.00193393
0
0
-0.00199603
0.00202168
0.00205117
0.00204199
0.00416058
0.00210453
0
0
0
-0.00214089
0.00213418
0
0
0
0
1.05008e-05
0
0
0
0.00455818
-8.91253e-06
0
-0.00460374
-0.00231182
0
-0.00688108
0
0.00464031
0.00468188
-0.00470861
0
0
-0.00462565
0
-0.0045959
0
-0.00455832
0.00456495
0
0
0.00452882
1.27634e-05
0
0.00438885
0.00434883
-0.00425552
0
0.00423658
0
0.00412308
-0.00407903
-0.00400979
0
0
0
0.00383241
0.00756426
-0.00742507
0
-0.0035914
0.00713392
1.10025e-05
-0.00343962
0.00335173
-0.00328784
0
0
-0.00316099
-0.00314711
-0.00308785
0
0
0
0
0
0
-0.00563964
0.00559743
0.00557705
-0.0055366
0
0
0
0.00544161
0.00542642
0
-0.00538302
0
0
0.0106615
0
0
0.0052551
0.0105291
0
0
-1.24089e-05
0.00518854
1.20644e-05
1.18042e-05
0.00506129
0.00508362
-0.00507639
0
0
0.00500649
-0.00497326
-0.00987906
0.0049153
0
0
0.00956979
-0.0142231
0.0093569
0.0092405
0
-0.00901737
0
0
0
0.0105696
0.00351519
0
0.0039626
-2.97564e-05
-0.00133286
-3.24259e-05
0.00102259
0
0
-0.000771483
0
-0.000733692
0
0
0.00150316
0
0.000778041
0
0.000794225
0
0
0
0
0
-0.0016412
0
0
0.000839662
0
-0.00171238
0
0
0
-0.000853435
0
0
-0.00174939
0
0
0.0017755
2.25559e-05
2.22196e-05
-0.001841
-0.00183108
0
0
0
0
0
0
0.00387011
0.0019382
0.003977
0
0
0
0
0.00206467
0
0.00210779
-0.00214334
0
-1.37404e-05
-0.00433219
-0.00442255
0
-0.0022004
0
0
-0.00224135
0.00226561
0
0
0
1.05909e-05
0
0
0.00231741
-0.00238455
-0.00723355
0
0.00947674
-0.00475626
0
0.00474593
0
0
0
1.40774e-05
0
0
0.00478555
0
0
0
0.00467554
-0.0093951
0.00467674
0.00468239
-0.00461555
0.00453849
0
-1.42337e-05
-0.0043688
0.00434144
-0.00430943
-0.00433297
-0.00424795
-1.4626e-05
0
0
-0.00398131
0
0.00388872
-0.00386314
-0.00381014
1.19848e-05
0
0
-0.00361046
1.18751e-05
0.00346638
-0.00339071
0.003325
0
0
0
0
0
0
0
0
0
0
0.00578897
0.00572959
-0.0113311
-0.0112495
0.00558204
0.00552663
0
0
0
-0.0109463
0
0.00545229
0
0
-0.0054129
-0.00537107
0
-0.0106977
-0.010667
0
0
-0.00527541
-0.0052462
0.00521185
1.27316e-05
-1.25255e-05
-1.24406e-05
1.24684e-05
0
0
0
0
0.0049824
-0.00495087
0
0
-0.009609
0.00948595
-2.29753e-05
-0.0092846
0
0.00908119
0.0089248
0
0
-0.00537096
-0.00357952
0
-0.00379884
-0.00304874
2.20379e-05
-0.00113966
-0.00196419
0.000850153
0.000810954
2.93139e-05
0
0.000787365
-0.00075242
-0.000756872
-0.000787987
0
0
0
0
0
0
0
0
-0.000867984
0.000897349
0
-0.000909354
-0.000925191
0
0.00184461
0
0
0
0.00187366
0
0
0.00192311
-0.00191566
0
-0.00194426
0.00387077
0.00196542
-0.00195444
2.00423e-05
-0.00193921
0.00195776
-0.00196846
0
0
0
-0.00203421
-1.72785e-05
-0.00211183
0
0
-0.00208594
-0.00208251
-1.48462e-05
0
-0.00439498
-0.00220533
0
-0.00224141
0.00448418
0.00226562
0.00228631
0.00229489
0
-0.0023337
0
-0.0023847
0
0.00244829
0.00237615
1.07761e-05
0
0.00240012
-0.00241604
0
2.02944e-05
-0.00487003
-0.00486613
0.00496256
0
0.00489556
0
0
0.00505108
0.00501928
0
-0.00494005
-0.00995052
0
0
0
0.00473045
0.00481556
-0.00944205
-0.00931445
-0.00455387
-0.00453401
0.00452615
-0.00449444
0.00440131
0
0.00441616
0
0.00434043
-0.00429249
0
0
0.0040292
0
-0.0078016
1.26112e-05
0
0.00384284
0
0
-0.00356913
0.00353796
0.00343721
-0.00683537
-0.00676685
0
0
0
0.00641179
0
0
0
0
0
0
-0.011659
0
0.011279
0.0056218
0
-0.00554096
-0.00556022
0
-0.00549208
0.00550447
0
0
0
0
-0.0054614
0.0108673
0
0.00540092
0.00538575
0
0
0
0
-0.00524001
0.0104606
-0.00519937
-0.0103365
0.00515079
0.00511869
0
0
0
0
0
0
0
0
0
-0.0187106
0
0
0.00907119
-0.00897637
0
0
-0.00525817
0
0
0.0018307
0.00148702
0.00249574
0.00109506
0.00101196
-0.000932536
-0.00171966
0.000802327
0
0
0.00155554
0.000802346
0
0
0
0
0
0
0
0
0.000903572
0.000944815
-0.000952771
0
0.000979916
0
-0.000974108
-0.000996429
0
-0.000982749
0
0
0
0
0
0.00207674
-0.00206665
0
-0.00208105
0
0.00424152
0.00211753
0.00210194
-0.00422256
0.00215542
0
0
0.00217029
0
-0.00434958
-0.00220551
0
0
0.00443196
0.00222772
-0.00226286
0
0.002275
0.00231022
0
0
-0.00233682
0.00229581
-0.00234406
0
0
1.26739e-05
0
-0.00248259
0.00251914
-0.0025222
-1.10537e-05
0.00479295
0
-0.00246197
0
0
0.00501658
0.00505311
0
0.00509283
-0.00494574
-0.00497053
0
0
-0.0102153
0
0
0.00504566
0.00495124
0
0.00487608
0.00499898
-0.00968755
0
0.00483246
0.00473667
1.67688e-05
1.6808e-05
-0.00457352
0
0
0
0.00444628
0.00447732
0
-0.00432698
0.00423345
0
0
0
0.00386411
0.00391029
0
0
0.00375605
0
0.00357182
0
-0.00344774
0.00698106
0.00702496
0
0.00648503
0
-2.43421e-05
0
0
0.00620661
-0.00614409
0.00605823
0
0.0117817
0
-0.00570038
-0.00565788
0.00561295
0.00556196
0.00561964
0
0.00555964
0.00556687
0.0055867
0
0
0
0.00554977
-0.00547366
-0.00544324
-0.00539484
0.00540886
0
0
0
0
0.00528624
-1.43813e-05
0.00522571
0.00521185
0
-1.38253e-05
0.00512525
-0.00509152
-0.00505191
0
0
0
0
0.00966969
0
0.00939008
0
0
-0.00906486
0
0
0
0.00530366
0
0
-0.00181586
0
-0.00127945
-0.00113819
-0.00101775
0
0.000900088
0.000842657
0
-0.000823124
-0.000833357
0
0
0
0
0
0
0
0.000906087
0
-0.00194372
0
0.00102641
-0.00103445
0.00104528
-0.00105344
0.00107867
0
0
0.00108877
0.00108888
0.00109332
0
0
0
-0.0011006
0.00222992
-0.0022133
0
0
-1.7574e-05
0
0
0.00447936
0.00226871
0.00228039
0
-0.00228317
0
0.00229409
0.00230906
0
0
-0.00233555
0
0
0
0
-0.00239044
0.0024334
-0.00243984
0
-1.21874e-05
0
-0.00245037
0.00250627
0.00250321
0
0.00256766
-0.00260656
0
-1.13585e-05
-1.13229e-05
0
0
-0.00256727
0
0.00258495
0
0
-0.00517223
1.94162e-05
-0.00511447
0
0
0.00517622
0
0
0
0
0
-0.0100779
-0.00509552
0.0049518
0
-0.00488301
-0.00491511
0.00960805
0.00471857
0
-0.00456716
0
0
-0.00447981
-0.00448827
0
0.00869868
-0.00426368
0
0.00408373
0
0
0
0
-0.00387936
-1.26336e-05
-0.00357797
0
0
-0.00343934
0
-0.00350266
0
-0.00661713
0
-2.32467e-05
0
0
-0.00623155
1.9709e-05
-0.00626308
0
-0.0121792
0
0.00590244
0.00579791
-0.00568646
-1.27105e-05
0
0
-0.0056302
-0.00569883
-0.00574719
-0.00572696
0
0.0056687
0.00563203
-0.00548198
0.00547746
0.00542126
-0.00542727
0
0
0
-0.00532976
0.00530305
-0.00530349
-0.00527747
0
0
-0.00519973
-1.39128e-05
0.0102414
0.00508284
0
0
-0.00493841
0
-0.009701
-0.00478567
0
0.00925868
0
-0.00905781
-0.00897418
-0.00871083
0
0
0.00324654
0
0.0019208
-0.0016168
0
0
8.26785e-06
0
0
-0.000956185
0
0.000942818
0.000942685
-0.000949722
0
0
-0.000977766
0
0
0
-8.19462e-06
0
0.00212533
0
0
0.0011219
-0.00113024
0.00114927
0
0
0
0
-0.00118929
-0.00118931
0
-0.0011762
0
0.00118032
-0.00117151
0.00235516
0
0.00117499
-0.00355226
0
-0.00235968
-1.52218e-05
-1.48213e-05
-0.00478111
0
0.00236992
0
0
0.00239904
0
0
0
0.00243984
0
-0.00245445
0
0.00248925
-0.00251963
1.17921e-05
0
-0.00252709
0
0.00256641
-0.00262219
-0.00259683
0
0
-0.00265943
0
-0.00263089
-0.00259759
0.00262073
0
0.0026554
0
-0.00534352
0
0
-0.00264403
0.00784497
0.00528888
0.00263799
0
0
-0.00525568
0
0
-0.00523713
-0.00513535
1.77299e-05
0
0
0.00507684
0.00497956
1.84162e-05
-1.8212e-05
0
0
1.75906e-05
0
0.00460704
0
-0.0045266
0
-1.47217e-05
-0.00432739
-0.00434469
-0.00415593
0
0
0.00401911
0
0.00391587
-1.3031e-05
0.00368046
0
0
0.0035373
-0.00350784
0.00350505
-0.0034775
0
0
-0.00972847
-0.00316589
0
0
0.00619029
0
0
1.59884e-05
0
-0.00607191
0.00597142
0
-0.00580717
0
-0.00569311
0.00570324
0
0
1.49053e-05
0
-0.0114974
-0.0113952
0.00557286
0
0.0054606
0
0
0
0
0.00536293
-1.51848e-05
0.00532029
0
0
0
0.0052076
-0.00518234
-0.0102656
0
0.00503967
0.00498869
1.2502e-05
0.00489879
-0.00483473
0.0047997
0
-0.0139075
-0.00461586
0.00909982
0.0134486
0.00871762
0
0
-0.0016813
0
0
0.00276138
0
0
0.00146317
0
0
0
0
0
-0.00119292
0.00119625