/*--------------------------------*- C++ -*----------------------------------*\
  =========                 |
  \\      /  F ield         | OpenFOAM: The Open Source CFD Toolbox
   \\    /   O peration     | Website:  https://openfoam.org
    \\  /    A nd           | Version:  8
     \\/     M anipulation  |
\*---------------------------------------------------------------------------*/
FoamFile
{
    version     2.0;
    format      ascii;
    class       volScalarField;
    location    "100";
    object      wpod_0;
}
// * * * * * * * * * * * * * * * * * * * * * * * * * * * * * * * * * * * * * //

dimensions      [0 1 -1 0 0 0 0];

internalField   nonuniform List<scalar> 
12225
(
6.92826e-17
-1.17527e-19
-4.96623e-20
8.87496e-20
-1.58368e-19
-1.51276e-20
1.22608e-21
-8.73224e-20
-5.02876e-20
1.37323e-20
3.58699e-20
-3.0596e-20
-3.84647e-20
2.08956e-20
-3.7065e-20
-3.60649e-20
1.36253e-20
2.63991e-20
1.69525e-20
-2.13403e-21
-1.33324e-20
-6.71578e-21
-1.44324e-20
1.58656e-21
-3.79848e-21
-3.53002e-21
-6.22459e-21
5.7335e-21
3.27038e-22
2.78524e-21
-2.80182e-21
-6.72975e-22
1.11776e-20
4.79961e-21
7.20877e-21
-6.89789e-21
7.42223e-21
-4.251e-21
-6.41477e-21
-4.65503e-21
-3.55431e-21
7.12383e-21
-5.76792e-21
9.12946e-21
2.35542e-21
-5.14369e-21
-3.5785e-21
6.91311e-21
-6.19359e-22
-3.09039e-21
6.33779e-21
-2.90124e-21
-2.60789e-21
-1.50221e-21
-2.13428e-21
-2.77241e-21
3.89116e-21
3.72275e-22
8.92354e-22
-4.37531e-22
1.31378e-21
4.0151e-23
4.08298e-22
-6.64675e-22
3.0443e-21
-2.66472e-21
2.01506e-21
1.83868e-21
-2.38809e-21
5.46722e-22
-6.86392e-22
1.66735e-21
-2.75172e-21
-1.83937e-21
-1.11056e-21
8.78075e-23
7.79091e-22
4.73158e-22
1.96594e-22
-1.4324e-22
5.56075e-22
4.26652e-22
1.21828e-22
1.42384e-22
4.65916e-22
2.54279e-22
-1.60813e-22
-1.4196e-22
1.41985e-22
1.68815e-22
1.71156e-22
1.52557e-23
-2.11758e-24
-1.47625e-23
-4.79278e-23
4.3073e-23
-3.15142e-24
-3.1444e-24
0
0
0
0
0
0
0
0
0
0
0
0
0
0
0
0
0
0
0
0
0
0
0
0
0
0
0
0
0
0
0
0
0
0
0
0
0
0
0
0
0
0
0
0
0
0
0
0
0
0
0
0
0
0
0
0
0
0
0
0
0
0
0
0
0
0
0
0
0
0
0
0
0
0
0
0
0
0
0
0
0
0
0
0
0
0
0
0
0
0
0
0
0
0
0
0
0
0
0
0
0
0
0
0
0
0
0
0
0
0
0
0
0
0
0
0
0
0
0
0
0
0
0
0
0
0
0
0
0
0
0
0
0
0
0
0
0
0
0
0
0
0
0
0
0
0
0
0
0
0
0
0
0
0
0
0
0
0
0
0
0
0
0
0
0
0
0
0
0
0
0
0
0
0
0
0
0
0
0
0
0
0
0
0
0
0
0
0
0
0
0
0
0
0
0
0
0
0
0
0
0
0
0
0
0
0
0
0
0
0
0
0
0
0
0
0
0
0
0
0
0
0
0
0
0
0
0
0
0
0
0
0
0
0
0
0
0
0
0
0
0
0
0
0
0
0
0
0
0
0
0
0
0
0
0
0
0
0
0
0
0
0
0
0
0
0
0
0
0
0
0
0
0
0
0
0
0
0
0
0
0
0
0
0
0
0
0
0
0
0
0
0
0
0
0
0
0
0
0
0
0
0
0
0
0
0
0
0
0
0
0
0
0
0
0
0
0
0
0
0
0
0
0
0
0
0
0
0
0
0
0
0
0
0
0
0
0
0
0
0
0
0
0
0
0
0
0
0
0
0
0
0
0
0
0
0
0
0
0
0
0
0
0
0
0
0
0
0
0
0
0
0
0
0
0
0
0
0
0
0
0
0
0
0
0
0
0
0
0
0
0
0
0
0
0
0
0
0
0
0
0
0
0
0
0
0
0
0
0
0
0
0
0
0
0
0
0
0
0
0
0
0
0
0
0
0
0
0
0
0
0
0
0
0
0
0
0
0
0
0
0
0
0.000347439
-0.000512227
0
0
0
0.000317665
0
0
0
0
-0.000210663
0
0
0
0
-0.000155414
0
0
0
0
0
0
0
-0.000109369
0.000105454
-0.000101858
-9.84104e-05
0
0
8.92841e-05
8.66253e-05
0
0
7.96449e-05
0
0
-7.38402e-05
0
-7.05238e-05
-0.000138001
0
0
0
0
0
-0.000122505
-0.000120346
-0.000118249
0
0.000114308
0
-0.000110719
-0.000109017
0
0
0
-0.000102818
0
0
0
0
0
0
0
0
9.15796e-05
0
0
-8.84049e-05
-8.75463e-05
0
8.56081e-05
-8.45573e-05
0
8.30618e-05
0
0
-8.02192e-05
0
7.85972e-05
0
-7.72333e-05
-7.64474e-05
-7.57739e-05
-0.000149768
0.00014888
0
0
0
0.000142996
0.000142156
-0.000140922
0
0.000138501
0.000137374
0.000136608
0
0
0
0.000131841
0
0
-0.000127901
0
0
-0.000124509
0
0
0.000121764
0.000121341
0
-0.000118693
0
0.000117707
0
0.000116152
0.000114547
0
0
0
0
0
0
0
0.000107126
-0.000106562
0
0
0
0
-0.000203823
0
0.000200433
-0.000195225
0
0
0
0.00018522
0.000183726
0
0.00018216
0.000181041
-0.000181352
0
0
-0.000175856
0
0
0
0
0.000161877
0.000159494
0
0.000160174
0
0
0.000149614
0
0.000152394
0
0
0.000141943
0
0.00013824
0
0
0
-0.000133394
0
0.000125755
0
0
0
0
0
0
0
-0.000222766
0
0
-0.000947601
0.00107059
0
-0.000479876
0
-0.000191637
0.00035656
0.000336438
0
0.000305837
0.000145935
0
0
0
0
0.0001207
0
-0.00022817
0
0
0.000208654
0
-0.00019708
9.5232e-05
-9.19675e-05
8.87996e-05
8.58688e-05
0
0
-7.71832e-05
7.48073e-05
0
0
-6.86389e-05
0
0
6.41498e-05
0
-6.17282e-05
0.000121053
0
0
0.000229592
0.000225889
0.000221777
-0.000109522
0.000107908
0.000318483
-0.000209737
-0.000103225
0
0.000100262
-9.90341e-05
0
0
0
9.51069e-05
0
-0.000185034
0
-0.00018111
0
0.00017735
0
-0.000174657
8.65109e-05
0
0.000170024
8.4689e-05
8.39044e-05
0
8.25807e-05
8.16022e-05
0
-8.05068e-05
0.000159409
0
7.82453e-05
0
-0.000229822
0
0.000228567
7.54895e-05
-7.51448e-05
-0.0001485
0.000147508
0
0
0
-0.000427698
-0.000142196
0.000142772
0
0.000139472
-0.00013957
-0.000139703
0
0
0
-0.000134775
0
0.000264357
0.000389086
-0.000261445
0
-0.000125819
0
-0.000248545
0.000122578
0.000124609
0
0.000359875
-0.000242845
-0.000123437
0
-0.000120798
-0.000355406
0
-0.00023836
-0.000227986
-0.000225439
0
0
0
0.000112987
0.000114769
0
0.000212714
0.000216781
0
0.000220958
0.000421905
-0.000213012
-0.000203757
0
0
0
-0.000187408
0.000184526
0.000366488
-0.000190364
0.000196822
0.000199076
0
0
-0.000193239
0
0
0.000353367
0
0.000170392
-0.000163661
0
0.000175605
0
0
-0.000155237
0.000320562
-0.000166568
0
0
0.000148986
0
0.000144482
0
0
0
0.000141458
0
-0.000130272
0
0
0.000257634
-0.000269583
0
0
0
0.000684027
0
-0.000503532
-9.65847e-07
-0.00107497
0
0.000616485
0
0
3.19809e-07
-0.000192088
-0.000183952
-0.000175542
0
0
0.000162415
0.000321731
-0.000317383
0
-0.000302592
0.000146641
0
-0.000287985
-0.000142008
0.000278235
0.000137018
0
-0.000261296
-0.000253132
0
-0.000239011
0
-0.000226744
-0.000110022
0
0
0
0
0
0
-0.000198657
0.000294482
0
0
0
1.24821e-07
-0.000184278
-0.000361959
0.000359272
0.000177969
-0.000174598
-9.14348e-08
-0.000169893
0
-0.000164789
-7.32899e-08
0
0
0.000162485
0
0
-0.000156225
-0.000311552
0.000154145
0
-0.000151678
0
-0.000149288
-0.000147366
0.000294551
0.000146168
0
-0.000288904
0
-0.000433399
-0.000286358
-0.000281663
0.000278053
-0.000415708
0
0
0.000271282
0.000400995
0
-0.00013298
0
0.000399605
-1.86676e-08
1.63378e-08
-0.000260362
0
0.000255184
-1.44223e-08
0
0
0
-0.000247891
0
0
0
0
0
-0.000242699
0
-0.000234206
-0.000230522
0.000232847
0
0.000226026
0
0.000223628
-0.000220011
-0.000669535
0
-0.000650106
-0.000215998
0
-0.000436006
-0.000432139
0.000643554
0
0.000209513
0.0002036
0.000621396
0
0
0
0.00019989
0
0
-0.000194478
-0.000194016
0
0
-0.000382609
0
0.000368232
0.000375174
0
0
-0.000352408
-7.74499e-09
1.2891e-09
0
-0.000712519
0
0
0
0.000345402
0
-0.000644276
-0.000315334
0
-0.000316816
0
0
-0.000937242
0.000599241
0
0.000567548
-0.000286087
0
0
0
-0.000819905
0
-0.000263854
0
0
0
0
0
0
-0.000502308
0
-0.000239515
0.000727475
0
0
-0.00046669
-0.000413113
0.000437674
0.000447883
0.00144199
0.00139222
0.0006777
0.000261459
0
-0.000355788
0.000158906
0
0.000139644
0
-0.000259862
0
-0.000124576
-0.000245482
0.000243664
0
0.00023567
0
0
0.000223896
0
3.41712e-07
0
0
-3.01281e-07
0.00020659
0.000202514
0.000198312
0
0.000385181
0
0.000186995
0
0
-0.000182898
0
0.000177586
-1.69009e-07
-0.000350498
0.00034812
0
0
0.000168948
0
0.000165603
-0.000164062
-0.000162734
0
0.000160047
0.000158541
-0.000313871
0.000155324
0.000154208
0
0
-0.000151296
0
0
0.000295458
0.000293584
0
0
0
0
0.000283074
-0.000280691
-0.000279674
-0.00055508
0
-5.80987e-08
0
0.0002711
-4.39037e-08
0.000267242
-0.000265124
-3.63206e-08
0
-0.000260438
-0.000258365
-0.000512693
0
0.000253449
0
-0.000501991
0.000249805
-0.000247426
0.000247081
0.000491522
-0.000243088
0.000242334
0
-0.000479005
0
-0.000471501
0.000470076
0.000469267
-0.000464143
-0.000462275
0
-0.000229423
0
0
-0.000446368
0
0
-0.000438298
0
0
0
0.000855557
0
0.000840805
0.000417161
0.000418898
1.33604e-08
0.000411936
-0.0008218
-0.00040614
0
-0.000396547
-0.000794709
0
0
0
-1.13618e-08
0
0
0
0
0.000745835
0
-0.000733626
0
-0.000713791
-0.000356445
0.000701804
-0.000694188
-0.000344415
0.000339879
-0.000336148
0
-0.00033627
0
0
0
-0.000644144
0
9.93961e-08
0
0
-0.000611462
0
0
0.000589498
-1.04581e-07
0
-0.000559913
-0.0005544
0
0
0.000538023
1.05573e-07
0
0.000513176
0
0
0
-0.000485457
0
0
0.000483672
0
0
-0.000917433
0
0
0.000432701
0.000814745
-0.000413258
0
-0.000861018
-0.000827028
-0.000612007
-0.000474583
0
0.000650991
7.76338e-07
0
0
0
0.000241038
0
0
0
0
0
-0.00021874
-0.000214669
0
0
0.000205958
-0.000406618
0
-0.000198296
0.000194932
0
-0.000566386
0.000373441
-0.000369526
-0.000182537
0
-0.000539762
0
0
0.000175223
-0.000347747
-0.000515831
0.000511055
0.000168914
-0.000335238
0
0
3.02325e-07
0
0.000321826
0.000319161
0.000316912
0
-0.000312127
0
0.000614998
0
-0.000303094
0
0.000298603
0
0
0
0
0
0
0
0.000282853
0
0
0.000276995
0
0.000273374
0.000271657
0.00026997
0
0
0.000264773
-0.000526411
0
0.00077791
0
0.000256661
0
0.000253534
0.000502742
-0.000250013
0
0.000247265
-0.000490873
0
0
-0.000483558
0
0.000477674
0
0.000470573
0
0.000930565
-0.000463626
-0.000922855
0.000458695
0.000455426
0
1.03309e-08
0
-0.000444739
0.000442159
0
0
0.00043355
-0.000431119
0
0
-0.000422236
0
-0.000416752
0
-0.000411833
0.000407798
-0.000812345
0.000404281
0.000400098
0
0.000393464
0.000390769
0
0
0.00076842
-0.000382607
0.00075636
0
0
0
-0.00145988
0
0.000719849
0
0.000704217
0
-0.000693643
0.000685695
0.000678605
-0.000672576
0
0
6.06537e-08
0
0
0
0.000625241
0
0.000611895
0
0.000600152
0.000596663
-0.000588795
0
0.000573049
-0.000567381
0
-0.000553353
0.00109356
0
0.00106098
-0.000525692
0.000519124
0
-0.000503239
0
0
0
0.000475772
0
0
0
0
0
0.000441082
0
0.000831
0
-0.000807829
-0.000794947
0
0
0.000747315
0
0
0
9.96978e-07
8.87811e-07
0.000262165
0
0
0
0
0
0.000441598
0
-0.000429901
0.000211612
0.000208759
0
0
-0.000200573
0.000198011
0
0.000192423
-0.000379152
0
0.000366405
-0.000363329
0.000359946
0
0
0.000351958
0
0
-0.000344691
0.000684664
0.000338794
-0.000671663
0.000332776
0
0
0
-0.000322802
0
-0.00031769
-0.000315142
-0.000312749
-0.000310664
0.000308328
0
-0.000304164
0
-2.06606e-07
0
-0.0005917
0
0.000292177
0
0
0.000572548
0
0
-0.000280614
0
0
0.000550585
0
-0.000542925
-0.000269932
0
0.000534274
0
-0.000525865
0.0010456
0
-0.000516679
0
0
-0.000508381
0
-0.00050206
0.000498249
0
0
0.000489393
-0.000486557
-0.000484063
-0.0004831
0
-0.000476895
-0.000471789
0
0
-0.000465837
0
0.000459188
0
-0.000454222
0
1.2935e-08
0
0.000442773
0
0
0
0
0.000430701
0
0
0.000845404
0
0
0
0.000818495
0
0.00080622
0
-0.00079976
0.000792158
0
-0.000778681
0
0
-0.0015283
0.000762186
-0.000750525
0
0
0
0.00144579
0
-0.000712358
0
0
0
0
-0.000684437
0
0.000671996
-0.000661557
-0.000654689
0.000648315
0
0
0
0
0
0
0
-0.000596803
0
0.000585139
0
-0.00170369
0
0.00110924
0.000549994
-0.000544034
0
-0.00105692
0
-0.0010264
0
0
0
0
0
0.000945288
0.000927679
0
0
0
0
-0.000863568
0
-0.00165495
0.000815224
0.000803248
0.000784974
0.00076533
0
-0.00066689
0
-0.000840574
-0.00069807
0.000303343
0.000273849
0.000255437
0.000483434
0
0
-0.000444435
0
-0.000856803
0
0.000418539
0
0
-0.000402332
0
-0.000393051
0
0
0
-9.12102e-07
0
0
0
0
0
0
0.000346797
0
-0.000340866
-5.8766e-07
-0.000335571
0
0.000330296
-0.000326629
0
0
0
0
0
0
0.000311971
-0.000310042
0.000307552
-0.000611578
0
0.000603296
-0.000599299
-0.000297857
0
0.000293432
0
-0.000290001
0
0
-0.000568202
0
0.00056222
0
0
0
-0.00109543
-0.000544221
0.00054148
0.000538595
0
-0.000532296
0
0.000523618
1.11853e-07
0
0
0.000512386
0
0.000506444
0
-0.000501614
-0.000497079
0
0
0
0.000484754
0.000482199
0.000481993
0
0
0.000472278
0.000469426
0
0
0
-0.000914278
0
0.000452403
0
-0.000447006
0
0.000884109
0.000876821
-0.000870581
0
0
0.000860277
0
0.000850935
-3.04731e-08
-0.00083962
0
0
-0.000819467
0
0
-0.000803743
0.00079905
-0.00158352
0
0.000778623
0
0
0.00152622
-0.000761601
0
0
0
0
-0.000718745
0.000715534
0.000707884
0
0
0
0.000693254
0.00137151
0
-0.00201022
0.000658208
0.000652352
0
-0.00127887
0
0
0
0
-0.00121111
0
0
0
0
0
3.13533e-07
0.00111384
-0.00110359
0.00109734
0
-0.00106869
0
0.00103228
0.00102082
0
0
0.000980211
0.000965931
0.000957203
-2.53955e-07
-0.000918897
0
0
0
0.000867743
0.000855126
0
0.00164259
8.09411e-08
2.01237e-07
-0.00078259
-0.00151732
-0.00126791
0
0
0.00154872
0.000649203
2.43895e-06
-0.00051776
2.05529e-06
-0.000464283
0
0
0.000428325
0
0.000413778
0
0
0
0
0.00039304
0
0.000381979
0
0
0.000368071
0.000361332
0.000356711
0.000353955
0
0.000349154
0.000344985
0.000342363
-0.000339227
0
0.000333564
-6.59221e-07
-0.000330585
-0.000328572
0
0.000322237
0
0
-0.000633819
-0.000630149
0
0
-0.000925952
0.000920857
0
-6.50944e-07
0
-0.000597324
0.000593746
0.00058962
0
0
0
-0.000576299
0
0.000568524
0
0
-0.000558274
0
0
0
0.00108873
0.000540847
0
1.85463e-07
0
0.000528886
-0.000525191
0.000521966
-0.000519183
0
0.000512156
9.39692e-08
0
0
0.000503957
0.000501098
0.000498457
0.000494264
-0.00049057
0
0
0
0
-0.000956122
0
0
-0.00140675
0
0.000922128
0
0.000913161
0
0.000905533
0
0.000891088
0
-0.000882137
-0.00175506
0.000871504
0
-0.000864195
-0.000861111
0
-0.000852429
-0.000843549
0.000838647
-0.000830531
0.000827973
0.000818315
0
0
7.99671e-08
0
0.000791015
0.00078763
0
0
0.000762812
-0.000761364
0
0
0
0.000736866
0.000731362
0
-0.000719249
0
0
0
0
-0.000692665
-0.000686668
-0.00135214
0.0013392
0.00132055
0.00130576
0
0.0025546
0
0
0
0
0.00120384
0
0
-0.00116631
0
0
3.60122e-07
-0.00222748
-0.00110348
-0.00109594
0.00108528
0.00213416
-0.00105237
-3.61202e-07
0
0
0
-0.000977887
-0.000962191
-0.000950918
-3.12713e-07
0
0
0
0
-0.000862355
0
0
-0.000822541
-0.000805485
-0.000800006
0.000778804
0.000756999
0.0011371
0.0010405
0
-0.00069217
0
2.63117e-06
-0.0004943
-0.000463938
0
-0.000433174
0
0
0
-0.000397185
0
0
0.000387158
0
0
-0.000374916
0
-0.00036722
0
-0.000710446
0.000351069
1.08009e-06
1.03423e-06
-0.000341697
-0.00033936
-0.000674893
8.72309e-07
0
0
-0.000657246
0.000326114
0.000324707
0.000323363
0
-0.000954028
0.000634596
0.000630932
0.000626052
0.000622118
0
-0.000614031
0.00121968
-0.000606473
-0.00060338
0.00119888
0
0
0
0
-0.000581499
0
0
0.000571202
0
-0.00112925
0
0.000558236
0
0
0
0
-0.000541654
0
-0.00053494
2.0043e-07
0
-0.000526566
0.000523524
-0.000520274
0
0
-0.00101992
-0.000507241
0
0
-0.00150302
0
-0.00148969
-0.000492761
0.000489605
0.000976435
0
0
0
-2.92714e-08
-0.000947845
0
-6.30943e-09
0
-0.000923191
-0.000916397
0.000910707
0
-0.000902437
0
0.000890348
0
0.000881627
0.000876833
-0.000872325
0
0.00172951
0
0
0
0
0
0.000833736
-0.000828513
-0.0008179
0
0
9.14336e-08
0
0.00079072
-0.0015721
0
0.00154257
-0.00228189
0
-0.00151402
0
0
-0.000736587
-0.000731983
0.00143928
0.00143431
0
0
0
0
0
0
0.00269077
0
-3.35912e-07
-0.00130771
0.00128762
-0.00127384
0
0
0
0
0.00120019
0
0.00117351
0.00232485
-0.00114684
0
0.00112684
0.00111146
0.00110692
0.00109606
-0.00108241
-0.00106353
0.00105195
-0.00207314
0
0
-0.000990237
0.000973157
0
0.00188913
-0.000934003
0
0
0
0.00174311
0.00171886
0
0
0
0.00160627
0.00158873
-0.00154418
0
0
-0.00091697
0
-0.000642275
0
-0.000496526
0.000463282
-0.000445128
0
0.00041711
0
0
0
0.000384707
-0.000383344
0
-0.000750351
0.000372576
0
0.00036265
0
0.00035062
0.000346738
0.000683765
-0.000679364
-0.00033695
-0.00100499
0.000332388
-0.000664809
0.000990213
-0.000327542
0
-0.000652376
0.000644863
0.0006433
0
0
-0.000632777
0.000627093
-0.00125213
-0.0012451
0
0
0
-9.60784e-07
9.10836e-07
0.000600422
0.000595981
-0.00118612
0
0
0
-0.000580197
-5.82846e-07
0
0
0
0
-4.30165e-07
0
-0.0011077
0
0
0
0
0
0.000536085
0.00106472
-0.00052994
0
-0.00105058
0.00104341
0
-0.00103098
0.00102767
0.00152642
0
0
0
0.000997377
0.000990806
0.00197035
0
-0.000973233
7.45745e-08
-0.000965425
-0.000958733
0
0.00190555
0.00189398
0
0.000931243
0
0
0.000916723
-3.03143e-08
-0.000910563
0
0
-0.00178317
0
-5.50078e-08
0
0.000871044
0
-0.000863309
0
0
-0.000847968
0
0
0
0.000826447
0.000815683
0
0.00161287
0.000800902
-0.00158526
-0.000790085
-0.000784787
0.00155698
-2.36652e-07
0.00152414
0.00151867
0.00300724
-0.00149095
0
-0.00147192
-0.0014545
-0.00143442
-2.72274e-07
0
0
0
0
0
0
-0.0026723
0
-0.00263444
0
-0.00256181
0
0.00125607
0
-0.00123008
0
-0.00240109
0
-0.00117315
-4.53649e-07
0.00228687
0
0
0
0
-0.00109033
0
0
0
0.00310278
0.00203045
0
0.000986804
-0.000967379
-0.00190737
-0.00188054
-0.0018582
-0.00181708
0.00180521
0
-7.24175e-07
-0.00342593
0
0
0
-7.98811e-08
1.42323e-07
0.00153828
0
-0.000938667
0.000826027
0
0.000604797
0
0.000477208
0
0.000426787
0
-0.000405675
0
0
0
0.000376423
0.000369743
0
0.000359817
-0.000355016
0
0
0
0
-0.000335777
-0.000332496
0.000329399
0
0.000648378
-0.000652931
0.00130468
-0.000648481
0
0
0.00063979
0
-0.000632661
0.000631368
0
0.00124565
0
0.000616949
0.000613689
-0.000611991
0
0
0.000599074
9.72793e-07
-0.000592207
0.000590057
-8.25788e-07
0
0
0.000577784
0.000574213
0.00057117
0.000568546
0
0
0
0.000556234
0
-4.01805e-07
0.00054854
-0.00054532
0
0.00107833
-0.00107193
-0.00160063
-0.0015917
0
0
0.00104562
-0.00103916
0
0.00102736
-0.00102189
-0.00101441
0
0
-0.00100211
0
-0.00098679
-0.000980263
-0.000976634
0.000970868
-0.000964238
0.000957622
0.00190334
0
-0.000947513
-0.000944719
0
0
0
0.000920002
0
-0.000911987
0.000910132
0
0
0.000891013
0
-0.00175969
0
0
0
-0.000862673
0
0
0.00254024
0
0
0
-0.00247339
-0.000816808
0
-0.0016191
-0.00160564
0.00317846
-0.00157864
0.00156686
-2.79793e-07
-0.00155111
0
-0.00152128
-0.00150336
0.00149304
0
2.85695e-07
0.00290446
0
-0.00143034
0
0
0
0
0
0
0.0013263
0
0.00131426
-0.00129964
0.00128112
0
-0.00125525
0
4.83641e-07
0
4.81521e-07
0
0
-0.00116185
-0.00114536
0
0.0022446
0
0
0
0
0.00211296
0
-0.00205335
-9.89884e-07
-0.00200639
0
0
0.0019028
0.00186903
0.00184961
8.73994e-07
-0.00179202
0
-0.00173691
0.003417
0
0
0.00163431
-0.00317916
2.9113e-08
0
0
0.000856972
-0.000745232
0.000632611
0
0
3.20213e-06
0
0
0
-2.70201e-06
0
0
0
-0.000361585
-0.000717908
0
0
0
-0.000698113
-0.000693819
0.000685491
0.00067513
0
0
0
0
0
-2.51008e-06
-0.00063967
0
0
0
0
0
0
-0.000621172
0
-0.000616478
0
0
0
0.00060403
0
0
0
1.02977e-06
0
-0.00116888
0.00058053
0
0
-0.000572089
0.000569985
0
-0.00056352
-0.000561131
0
0
0
0
0.000547977
-0.000545019
0.000541812
-0.00107866
-0.00214273
0.0010644
0.00106073
0.00105517
0
0
0
0
-0.00102987
0
0
0
0.00100842
0
-1.80605e-07
0
0.00098835
0
0.000975959
0
0
0
-0.000955765
0
0
-0.000941821
-0.000935388
-0.000930559
0
-3.06755e-08
0
0.000910993
0
0
-0.00089538
0
0
0.000877317
0.000873765
0
0
0.000862321
-0.0017152
0
-0.0016928
0
0
-0.00165379
0.0016491
0.0016375
0
0
0.00160658
-0.00159242
0.00157799
-0.00156479
-0.00155793
-0.00154934
-0.00152473
0
0.00150373
0.00149192
0
0.00146846
-3.30531e-07
0.00144049
0
0
0
0
0
0
-0.00134712
0
-0.0013131
0
0.0012973
0
0
-0.00125475
0
0.00246132
0
0.0011985
0
0
0
0
0
-0.00446893
0.00219426
0.00218148
0
-0.00213998
-0.00211394
0
0
-1.06993e-06
0.00199679
0
0.00191537
0
-0.00185352
0
0.00359403
0
0.00175423
0
-0.00170263
0
0
-0.00162793
0.00158546
-8.30091e-08
-0.0015321
0
0
0
-0.000539597
0
0
-0.000416097
0
-0.000389824
0
-0.000372414
0
0
0
0
0.000694488
-0.000690811
0
0
0.000672551
0.000670826
3.70488e-06
-0.000659521
0
0
0
0
0
0.0012634
0
0
0
0
-0.00062105
-0.000619002
0
0
-0.000610686
0
0
0.000600747
0
0
0
0
0
1.07937e-06
0.000581142
0.000576842
0
0.00057189
0
0
-0.000563954
0.00112377
0
0.000556277
0
0
0
0
0
0
-0.00107708
0.00107144
0.00106534
0.00105805
-0.00105236
0
0
0
0
0.0010283
0.0010234
-0.0010166
0.00101459
0
-0.00200997
0
0.00099339
0.000990527
-0.0019721
0
0
-0.000965037
0.000964135
-0.000960716
0.000958304
0
0
1.09267e-08
0.000935454
3.17293e-08
0
-3.86495e-08
-0.00091117
-5.91728e-08
0
0
0.000895532
0
0
0.0017549
0.000873929
0
0
0
0.00171658
0
0
0
0
0.00330991
-0.00164672
-2.78542e-07
0.00162819
0
-0.00159849
0
0.00157595
0.00156294
0
0.00154689
0.00304383
0
-0.00150151
-0.00297921
0
0
-0.00290206
-3.68624e-07
0
0
0
-0.00138674
0
0
0.0026885
0.00132733
0.00131476
0
0
-0.00128445
0
-0.00124986
0
-0.00122716
0
-0.00238587
-0.00235686
0.00232087
0
0
0
0.00222444
-1.13202e-06
-0.00217756
0
0.0021304
0
0
0
-0.00200771
0
-0.00195856
-0.00190915
0
0.00184522
-0.00183362
-1.03267e-06
-0.00176755
-1.00732e-06
0
0.00169616
0
0
0
-0.0015904
-2.05061e-07
0.00306234
0
0.000707536
0.000585589
0
0
0
0
0
0.000376633
0
-6.3703e-06
0.000734199
0
0
0
0
0.00136668
0
0
0
0
-0.00129789
0
0
0
-0.000632004
0
0
-0.000618713
0
-0.000620795
0
0
0.000608885
0.00121493
0
0
0.000598351
0
-0.000595853
-0.000591465
0.000590681
0
0
0
0
-0.000576867
-0.000573574
0
0
-0.000565069
0
0
0
-0.00111294
0
0
-0.00109927
0
-0.00108962
0
0
0
0.00106941
0.00106625
-0.00106153
6.32858e-07
0.00104803
0
0
0
0
-0.00102171
-0.0010175
0.00101134
-0.00100865
-0.00100481
0.00100108
0
0
1.51951e-07
-1.27724e-07
-0.00097602
0.000971595
-7.87802e-08
-0.00096243
0.00191697
-0.000954101
0
-0.000942434
0.000936533
0
0.000926604
0
0.000914256
-0.000909956
-0.000905711
0.00180351
0
0
-0.00177742
0
-0.00175733
-0.00174681
0
-0.0017347
0
0
0.00170477
0
0
0
-3.00955e-07
0.00164877
-0.00163595
-0.00162256
0
0.00319108
-0.00158414
-0.00157783
0.00156464
0
-0.00153985
-0.00151827
-0.00150702
0
0.00148886
0
0
0.00289291
-0.00142854
0
0
0
0.00138209
0
0
-0.00134087
-0.00132636
-0.00262716
0.00261318
-0.00257917
0.00128169
0
0.0024905
0
0
0
0.00236869
0.00467803
-0.002312
-0.00229005
0.00227018
0.00224392
-0.00221435
-1.20955e-06
0
0
0.00211663
0
-0.00204856
0
0
0.00197952
0.00390643
0
0
-0.00369843
0.00183781
-0.00178522
0.00176536
-0.00174843
-0.0017229
-0.00338403
0
0
0
0.00158804
-0.00156697
-0.00152885
0
-0.000622213
-0.000481294
0
0
0
0
0
0
0
0.000676957
-0.000672276
0
0
0.0006661
0
-0.00131226
0.000651632
0
0
0
0.000627327
0.00062782
0
0
0.000618335
-0.000617343
0
0
0.000608378
0.000604801
0
0
0
-0.00059641
0
0
0.000592832
0.000591034
0.000588424
0
-0.000582871
0
0
0
0.00114542
0
0.00113524
0
0
0.00112043
0
0.00111334
-0.00110826
0
-0.00109795
-0.00109326
0.00108798
0
0.00215779
0
0
-0.00106507
0
7.52258e-07
0.00105109
6.48001e-07
0
0
0
0
-0.00102285
0
0.0010121
0
0
0.000997935
0.000993402
0
0
-0.000978711
0.001951
-1.07236e-07
-0.000967583
0.000961051
-0.000958323
-0.000953895
-0.000947139
0
0.00280991
0.00186471
0
0
0
-0.00365138
0.00181461
-0.00180452
-0.00179416
0
0
0.00176699
0
0
0.00174156
0
0.00172639
0.00171808
0
-0.00169456
0
0
0
-0.00330424
-0.00163942
0
0
0
-3.99058e-07
0.00315922
-0.0015694
-0.00155775
-0.00154341
0.00306511
0.00151477
0.0015037
0
0
0
0
-0.00288534
-0.0014277
-0.00141499
0
0
0
0
0
0
0
0.00261741
-0.00259457
0.00256137
0
0
0
0.00244837
0
0
0
-0.00233489
0
0.00456635
-0.00226605
-0.00223933
0.00220644
-1.29282e-06
0
0
-0.00420321
0
0.00407168
0.00201267
0
-0.00195426
-0.00194087
0
0
0.00369347
-0.00182727
-0.00178752
0
0
0.00171486
0.00168572
-0.00165947
0
0
0
0
0
0
0
0.000870949
0
0
0.000757589
-0.000687056
0
-0.000611408
0
0
0
0
0
-0.000613704
0
0.000608641
5.24163e-06
0
0.000600503
0
0.000592203
-0.000585757
0
0
0
0.000580434
-0.000581637
0
-0.000573186
0
0
-0.000569012
0
0
0
0.000560435
-0.000556026
-0.000553644
0
0
0
0
0.00108906
0.00108404
-0.00215571
0
-0.00106711
0
0
-0.00105425
0
-0.00104549
0.00208373
0
0.00206401
0.0010286
0
0
-0.00101443
0
0
0.00100073
-0.000997304
-0.000992558
-0.000988385
-0.00196704
-0.000981705
0
0
0
0.000962639
-0.000958633
0
0
0
0
2.20751e-07
0
0
0
-0.00183691
-1.0216e-07
0
0.00181834
0.000907001
0
0.00267402
0
-0.0017701
-0.00176238
0.00176189
0
0
0.00172726
0
0.00171414
0
0.00168959
-0.00167933
0
0
-0.00166996
-2.92429e-07
0
-0.00162658
-0.00162094
0.00161476
0
-0.00160243
0
-0.00157497
0.00156583
0.0015646
0
0
0
-0.00149656
-0.00300331
0.00297558
0
0.00147041
-0.00294235
-4.51432e-07
0.0014419
-0.00143104
0.00141739
0
0
0.00138057
0.00137164
0.00136139
0
0
0
0
0
0
0.0025309
-0.00251547
-0.00249335
0.00246533
0
0
0
-0.00237218
-0.00234927
0
0.00229332
0
0
-0.0044527
0
0
-0.00215207
-0.0042464
0
0
1.4326e-06
-0.00202487
-1.42014e-06
-1.4124e-06
-0.00193791
-0.00191414
0.00189835
0
0
-0.00182107
0.00180014
0.0035407
-0.0017428
0
0
-0.00333449
0.00493493
-0.00322768
-0.00319426
0
0.00309123
0
0
0
-0.00177817
-0.000806298
0
-0.00151725
-9.42124e-06
0.000691346
-8.36696e-06
-0.000685713
0
0
0.000663675
0
0.000660747
0
0
-0.00128939
0
-0.000639426
0
-0.000634935
0
0
0
0
0
0.00125001
0
0
-0.000622803
0
0.00123174
0
0
0
0.000609436
0
0
0.00119982
0
0
-0.00118703
2.82532e-06
2.6725e-06
0.00116927
0.00116704
0
0
0
0
0
0
-0.00226681
-0.0011273
-0.00224275
0
0
0
0
-0.00109457
0
-0.00108375
0.00108016
0
-6.81522e-07
0.00212532
0.00213141
0
0.00105356
0
0
0.00103931
-0.00104287
0
0
0
1.91019e-07
0
0
-0.000990478
0.000990232
0.00297604
0
-0.00396966
0.00197809
0
-0.00190741
0
0
0
-1.76809e-07
0
0
-0.00185099
0
0
0
-0.00179261
0.00358128
-0.00178105
-0.00178443
0.00180076
-0.00175897
0
3.54374e-07
0.00173125
-0.00171994
0.00173356
0.00171637
0.00170733
3.96661e-07
0
0
0.00163269
0
-0.00159794
0.00155418
0.0015766
-4.78282e-07
0
0
0.0015703
-5.07381e-07
-0.00152975
0.00151745
-0.0014914
0
0
0
0
0
0
0
0
0
0
-0.00263758
-0.00262765
0.00526928
0.00518754
-0.00256181
-0.00252653
0
0
0
0.0049113
0
-0.00236274
0
0
0.00229253
0.00227509
0
0.00443524
0.004373
0
0
0.00209676
0.00207224
-0.00203468
-1.48291e-06
1.47035e-06
1.4547e-06
-1.45569e-06
0
0
0
0
-0.00178986
0.00175786
0
0
0.00335028
-0.00331136
2.1112e-06
0.00318942
0
-0.00310876
-0.00305118
0
0
0.000864199
0.000763661
0
0.0014932
0.00141303
8.92663e-06
0.000673721
0.00136504
-0.000687004
-0.00068658
7.08704e-06
0
-0.000680787
0.00068464
0.000685404
0.000680525
0
0
0
0
0
0
0
0
0.000676323
-0.000670751
0
0.000669664
0.000664868
0
-0.00132377
0
0
0
-0.00130373
0
0
-0.00129071
0.00129096
0
0.00128045
-0.00255179
-0.00126847
0.00126695
2.38219e-06
0.00125767
-0.00125447
0.00124671
0
0
0
0.00122693
-1.46772e-06
0.00121474
0
0
0.00120001
0.0011831
-9.77532e-07
0
0.00233027
0.00116477
0
0.0011665
-0.00231631
-0.00115497
-0.00114565
-0.00114311
0
0.00114457
0
0.0011238
0
-0.0011127
-0.00109047
1.78336e-07
0
-0.0010915
0.00108327
0
1.94442e-07
0.00211282
0.00214307
-0.00214762
0
-0.00207554
0
0
-0.00204795
-0.00207357
0
0.00207522
0.00394051
0
0
0
-0.00192906
-0.00193045
0.00374213
0.00376825
0.00190016
0.00186313
-0.00188761
0.00186819
-0.0018889
0
-0.0018717
0
-0.00176696
0.00169461
0
0
-0.00168887
0
0.00343043
-4.41327e-07
0
-0.00164691
0
0
0.00163058
-0.00162665
-0.00162272
0.00321709
0.00315399
0
0
0
-0.00306249
0
0
0
0
0
0
0.00556937
0
-0.00556168
-0.00270317
0
0.0026705
0.00260728
0
0.00259131
-0.00257264
0
0
0
0
0.0023611
-0.00466755
0
-0.00228999
-0.00225038
0
0
0
0
0.00207612
-0.00409618
0.00201803
0.00398227
-0.00195534
-0.00192493
0
0
0
0
0
0
0
0
0
0.00648077
0
0
-0.00312214
0.00305082
0
0
0.000872382
0
0
-0.000696929
-0.000664297
-0.00133814
-0.000669664
-0.000683561
0.000697968
0.00139578
-0.000694781
0
0
-0.0014431
-0.000720503
0
0
0
0
0
0
0
0
-0.000721794
-0.000716898
0.000718788
0
-0.000711845
0
0.000711338
0.000707147
0
0.000705178
0
0
0
0
0
-0.00138344
0.00138123
0
0.00136737
0
-0.00272121
-0.00135326
-0.00134928
0.00269518
-0.0013397
0
0
-0.00131614
0
0.00261809
0.00130892
0
0
-0.00258742
-0.00127108
0.00126075
0
-0.00125882
-0.0012499
0
0
0.00125909
-0.00124576
0.00122668
0
0
4.49407e-07
0
0.00120316
-0.00118465
0.00117999
-2.28725e-07
-0.00234285
0
0.00117321
0
0
-0.00236335
-0.00230234
0
-0.00230453
0.00219503
0.00220479
0
0
0.00438377
0
0
-0.00220624
-0.00209547
0
-0.00210098
-0.00210501
0.00409259
0
-0.00199374
-0.00200856
-2.79803e-07
-3.24381e-07
0.00202023
0
0
0
-0.0019842
-0.0019375
0
0.00179625
-0.00188249
0
0
0
-0.00178609
-0.00176158
0
0
-0.00172422
0
-0.00168028
0
0.00171883
-0.0034009
-0.00333484
0
-0.0031765
0
1.0564e-06
0
0
-0.00300005
0.0029937
-0.00295828
0
-0.00583541
0
0.00287598
0.00278922
-0.00282004
-0.00278708
-0.00274168
0
-0.00266751
-0.00263709
-0.00258289
0
0
0
-0.00245127
0.00240682
0.00237492
0.00235072
-0.00230011
0
0
0
0
-0.00212094
1.52994e-06
-0.0020528
-0.002025
0
1.51053e-06
-0.00191684
0.00189303
0.00184706
0
0
0
0
-0.00337466
0
-0.0032757
0
0
0.00311982
0
0
0
-0.000753378
0
0
0.000698765
0
0.000694319
0.000695079
0.000725262
0
-0.000737579
-0.000750858
0
0.000760017
0.000757668
0
0
0
0
0
0
0
-0.000768192
0
0.00152852
0
-0.000759385
0.000760351
-0.000759425
0.000759181
-0.000753655
0
0
-0.00074803
-0.000748228
-0.000745398
0
0
0
0.000738996
-0.00146738
0.00146992
0
0
-2.54155e-06
0
0
-0.00285984
-0.00142838
-0.0014149
0
0.00139503
0
-0.00139832
-0.00139677
0
0
0.00137413
0
0
0
0
0.00132609
-0.00134058
0.00134976
0
-5.76922e-07
0
0.00133256
-0.00135586
-0.00132966
0
-0.00127824
0.00127335
0
-2.46835e-07
-2.03387e-07
0
0
0.0012724
0
-0.0012493
0
0
0.00247664
4.02108e-08
0.00235009
0
0
-0.00233928
0
0
0
0
0
0.00446601
0.00224604
-0.00217907
0
0.00211714
0.0021521
-0.00425932
-0.00210773
0
0.00207124
0
0
0.00209541
0.00207466
0
-0.00392883
0.00200429
0
-0.00191346
0
0
0
0
0.00183661
3.8214e-07
0.00181449
0
0
0.00174412
0
0.00173481
0
0.00335493
0
1.03022e-06
0
0
0.00311978
-1.13472e-06
0.00311821
0
0.00607526
0
-0.00297285
-0.00289993
0.00292658
1.44541e-06
0
0
0.00275888
0.00271678
0.00267383
0.00261016
0
-0.00254456
-0.00252118
0.00247259
-0.00244899
-0.00239792
0.00234948
0
0
0
0.0021929
-0.00216243
0.00212651
0.00209091
0
0
0.00198621
1.48817e-06
-0.00383813
-0.00186669
0
0
0.00176257
0
0.0034094
0.00167786
0
-0.00322243
0
0.00311937
0.0030527
0.00301443
0
0
-0.00055441
0
-0.000615537
0.00064949
0
0
8.49261e-06
0
0
0.000772914
0
-0.000789536
-0.000798572
0.000801949
0
0
0.000806968
0
0
0
-4.03949e-06
0
-0.00161196
0
0
-0.000800037
0.000800447
-0.000799787
0
0
0
0
0.000788852
0.000786406
0
0.000785556
0
-0.000779523
0.000776644
-0.00155023
0
-0.000772656
0.00230312
0
0.00152499
-2.15692e-06
-2.03415e-06
0.00299764
0
-0.00147981
0
0
-0.00148366
0
0
0
-0.00145294
0
0.00143073
0
-0.00140889
0.00143106
7.23494e-07
0
0.00141974
0
-0.00142817
0.00142838
0.00140972
0
0
0.00135251
0
0.00132272
0.00132075
-0.00133475
0
-0.00133215
0
0.00261226
0
0
0.00129545
-0.00373993
-0.002475
-0.00124279
0
0
0.0024424
0
0
0.00238837
0.00240954
-1.28616e-07
0
0
-0.00236039
-0.00229955
-1.37695e-07
1.65631e-07
0
0
-2.22107e-07
0
-0.0022297
0
0.00217933
0
3.19656e-07
0.00207677
0.00208013
0.00203261
0
0
-0.00195068
0
-0.00192064
3.29269e-07
-0.00188426
0
0