/*--------------------------------*- C++ -*----------------------------------*\
  =========                 |
  \\      /  F ield         | OpenFOAM: The Open Source CFD Toolbox
   \\    /   O peration     | Website:  https://openfoam.org
    \\  /    A nd           | Version:  8
     \\/     M anipulation  |
\*---------------------------------------------------------------------------*/
FoamFile
{
    version     2.0;
    format      ascii;
    class       volScalarField;
    location    "100";
    object      wpod_4;
}
// * * * * * * * * * * * * * * * * * * * * * * * * * * * * * * * * * * * * * //

dimensions      [0 1 -1 0 0 0 0];

internalField   nonuniform List<scalar> 
12225
(
-3.1403e-16
6.46775e-17
-1.0585e-16
4.23254e-17
-1.14965e-16
4.78968e-17
5.6632e-17
-4.57708e-17
-5.08074e-17
-1.30081e-18
4.82796e-17
-3.27718e-17
-6.29657e-17
3.57003e-17
-3.7796e-17
-5.22923e-17
3.24867e-17
4.29536e-17
1.94607e-17
-1.89437e-18
-1.77336e-17
-6.84862e-18
-2.62867e-17
4.5973e-18
-2.56e-18
-4.05788e-18
-1.26467e-17
1.25372e-17
2.21624e-19
2.08934e-18
-6.63822e-18
-4.81203e-18
2.4543e-17
5.61125e-18
1.1911e-17
-1.04369e-17
1.4094e-17
-6.26521e-18
-9.16317e-18
-8.10442e-18
-5.97806e-18
1.4362e-17
-1.4137e-17
2.25009e-17
4.46135e-18
-1.22058e-17
-8.34307e-18
1.43176e-17
-8.55193e-20
-7.30682e-18
1.55662e-17
-7.464e-18
-6.41982e-18
-3.02191e-18
-4.7939e-18
-6.60986e-18
8.51805e-18
1.14624e-18
1.72353e-18
-1.04027e-18
3.0951e-18
-8.45123e-20
8.50972e-19
-1.6436e-18
7.20918e-18
-6.39949e-18
4.75526e-18
4.66304e-18
-5.69211e-18
1.24522e-18
-1.65017e-18
3.86378e-18
-6.55389e-18
-4.28801e-18
-2.60833e-18
2.82709e-19
1.79161e-18
1.06542e-18
4.14542e-19
-4.00309e-19
1.28035e-18
1.0013e-18
2.92753e-19
2.44899e-19
1.06586e-18
5.86255e-19
-3.29748e-19
-3.53956e-19
3.49189e-19
3.69286e-19
3.95942e-19
3.38719e-20
-1.28153e-20
-2.87948e-20
-1.17748e-19
1.00424e-19
-3.95013e-21
-7.96382e-21
0
0
0
0
0
0
0
0
0
0
0
0
0
0
0
0
0
0
0
0
0
0
0
0
0
0
0
0
0
0
0
0
0
0
0
0
0
0
0
0
0
0
0
0
0
0
0
0
0
0
0
0
0
0
0
0
0
0
0
0
0
0
0
0
0
0
0
0
0
0
0
0
0
0
0
0
0
0
0
0
0
0
0
0
0
0
0
0
0
0
0
0
0
0
0
0
0
0
0
0
0
0
0
0
0
0
0
0
0
0
0
0
0
0
0
0
0
0
0
0
0
0
0
0
0
0
0
0
0
0
0
0
0
0
0
0
0
0
0
0
0
0
0
0
0
0
0
0
0
0
0
0
0
0
0
0
0
0
0
0
0
0
0
0
0
0
0
0
0
0
0
0
0
0
0
0
0
0
0
0
0
0
0
0
0
0
0
0
0
0
0
0
0
0
0
0
0
0
0
0
0
0
0
0
0
0
0
0
0
0
0
0
0
0
0
0
0
0
0
0
0
0
0
0
0
0
0
0
0
0
0
0
0
0
0
0
0
0
0
0
0
0
0
0
0
0
0
0
0
0
0
0
0
0
0
0
0
0
0
0
0
0
0
0
0
0
0
0
0
0
0
0
0
0
0
0
0
0
0
0
0
0
0
0
0
0
0
0
0
0
0
0
0
0
0
0
0
0
0
0
0
0
0
0
0
0
0
0
0
0
0
0
0
0
0
0
0
0
0
0
0
0
0
0
0
0
0
0
0
0
0
0
0
0
0
0
0
0
0
0
0
0
0
0
0
0
0
0
0
0
0
0
0
0
0
0
0
0
0
0
0
0
0
0
0
0
0
0
0
0
0
0
0
0
0
0
0
0
0
0
0
0
0
0
0
0
0
0
0
0
0
0
0
0
0
0
0
0
0
0
0
0
0
0
0
0
0
0
0
0
0
0
0
0
0
0
0
0
0
0
0
0
0
0
0
0
0
0
0
0
0
0
0
0
0
0
0
0
0
0
0
0
-0.00129805
0.00247283
0
0
0
-0.000833424
0
0
0
0
-0.000870015
0
0
0
0
-0.000139083
0
0
0
0
0
0
0
0.000499028
-0.000457175
0.000383464
0.000330377
0
0
-0.000234411
-0.000220225
0
0
-0.000187654
0
0
0.000173923
0
0.000176564
0.000352103
0
0
0
0
0
0.000388689
0.000388695
0.000396554
0
-0.000417567
0
0.000427741
0.00043709
0
0
0
0.000462225
0
0
0
0
0
0
0
0
-0.000503796
0
0
0.000513327
0.000523012
0
-0.000527194
0.000531604
0
-0.00053396
0
0
0.000541902
0
-0.000546415
0
0.00054493
0.000542983
0.00054293
0.00108324
-0.00108016
0
0
0
-0.00105962
-0.0010494
0.00104241
0
-0.00101908
-0.00100159
-0.000983683
0
0
0
-0.000903089
0
0
0.000825744
0
0
0.00073167
0
0
-0.000609851
-0.000563411
0
0.000452506
0
-0.000325351
0
-0.00018806
-0.000113638
0
0
0
0
0
0
0
0.000390052
-0.000426837
0
0
0
0
-0.00111943
0
0.00118999
-0.00121695
0
0
0
0.0012714
0.00128028
0
0.00126301
0.00124376
-0.00122636
0
0
-0.0011106
0
0
0
0
0.000982517
0.000950022
0
0.000915358
0
0
0.000860184
0
0.000835235
0
0
0.000789292
0
0.000762569
0
0
0
-0.000707523
0
0.000690399
0
0
0
0
0
0
0
-0.00108237
0
0
0.00275563
-0.000275475
0
-0.000310681
0
-0.000136352
0.000185309
0.000104807
0
-2.99603e-06
-2.0874e-05
0
0
0
0
-7.56164e-05
0
0.000201866
0
0
-0.000145114
0
8.86769e-05
-3.89189e-05
3.1896e-05
-2.83562e-05
-2.38416e-05
0
0
6.08229e-06
-1.62811e-06
0
0
6.98034e-06
0
0
-1.34653e-05
0
1.59164e-05
-4.48815e-05
0
0
-0.000121377
-0.000130911
-0.000138272
7.19566e-05
-8.64738e-05
-0.000281209
0.000202435
0.00011133
0
-0.000121309
0.00012216
0
0
0
-0.000153554
0
0.000329905
0
0.000357136
0
-0.000378376
0
0.000399708
-0.000200398
0
-0.000426119
-0.000218749
-0.000223958
0
-0.000225981
-0.000232846
0
0.000241823
-0.000485939
0
-0.000251022
0
0.000766624
0
-0.000767452
-0.000261313
0.000257965
0.000518655
-0.000515903
0
0
0
0.00158003
0.000525187
-0.000519752
0
-0.000516897
0.000509488
0.000503403
0
0
0
0.000471568
0
-0.000910627
-0.00135819
0.000882627
0
0.000431074
0
0.000791056
-0.000391031
-0.000373695
0
-0.00100702
0.00064855
0.000302124
0
0.000277715
0.000792291
0
0.00045112
0.000424489
0.000397794
0
0
0
-0.000150365
-0.000122793
0
-0.000197877
-0.000171437
0
-0.000115581
-0.000197061
5.19176e-05
6.15967e-05
0
0
0
-1.50462e-05
1.94829e-05
7.22689e-05
-4.55582e-05
3.34077e-05
7.31744e-05
0
0
-9.42884e-05
0
0
0.000253039
0
0.000159186
-0.000157571
0
0.000140041
0
0
-0.000167174
0.000378384
-0.000181923
0
0
0.000174701
0
0.000181507
0
0
0
0.000177829
0
-0.000210541
0
0
0.000381065
-0.000411847
0
0
0
0.000924026
0
-0.000685934
-7.11128e-06
-0.0032438
0
0.00104937
0
0
5.44536e-06
-0.000119267
-8.20115e-05
-4.36659e-05
0
0
-1.17764e-05
-4.62411e-05
6.25859e-05
0
7.01038e-05
-3.71729e-05
0
5.65941e-05
2.87541e-05
-4.12427e-05
-1.89118e-05
0
1.04435e-05
4.25801e-06
0
-1.20536e-05
0
-2.20951e-05
-9.60417e-06
0
0
0
0
0
0
4.11538e-06
-8.13462e-06
0
0
0
4.04054e-06
3.97068e-05
9.2534e-05
-0.000111534
-6.62542e-05
8.31583e-05
-4.13079e-06
9.93774e-05
0
0.00011855
-4.16219e-06
0
0
-0.000162795
0
0
0.000190106
0.000412454
-0.00022015
0
0.000237258
0
0.00024107
0.000258271
-0.000526773
-0.000267718
0
0.000569093
0
0.000886662
0.000596713
0.000609474
-0.000626641
0.00096655
0
0
-0.000665038
-0.00102325
0
0.000350695
0
-0.00106046
-3.61032e-06
3.34838e-06
0.000710427
0
-0.000730014
-2.00597e-06
0
0
0
0.000727563
0
0
0
0
0
0.000686421
0
0.000662219
0.000669368
-0.000654281
0
-0.000637054
0
-0.000622061
0.000614492
0.00177794
0
0.00163611
0.000536538
0
0.00103512
0.00102338
-0.00147852
0
-0.000436274
-0.000425442
-0.00127499
0
0
0
-0.000373588
0
0
0.000324083
0.000302537
0
0
0.000515447
0
-0.000473579
-0.000478078
0
0
0.000414014
-9.07e-06
-8.85086e-06
0
0.000709235
0
0
0
-0.000274485
0
0.000532073
0.000218296
0
0.000163006
0
0
0.000593498
-0.000368503
0
-0.000280431
8.38553e-05
0
0
0
0.000389112
0
0.000104789
0
0
0
0
0
0
0.000143178
0
7.33886e-05
-0.000124916
0
0
0.000177753
0.000215661
-0.000199137
-0.000118342
-0.000438736
0.00511724
0.00160226
0.000471179
0
-0.000467783
0.000180945
0
9.17193e-05
0
-0.000112798
0
-3.09926e-05
-4.99599e-05
4.05786e-05
0
2.78313e-05
0
0
3.0507e-05
0
5.05323e-06
0
0
-4.07159e-06
4.77888e-05
5.26734e-05
5.28315e-05
0
0.00010385
0
3.61259e-05
0
0
-1.67923e-05
0
1.14384e-05
-2.83539e-06
-8.3068e-06
3.01153e-06
0
0
-6.16563e-07
0
-2.10352e-05
2.97474e-05
3.88572e-05
0
-5.62996e-05
-6.42274e-05
0.000141286
-8.2347e-05
-9.26532e-05
0
0
0.000117941
0
0
-0.000286212
-0.000302933
0
0
0
0
-0.00037462
0.000384594
0.000402542
0.000824082
0
-4.24068e-06
0
-0.000462469
-3.88117e-06
-0.000482916
0.000492293
-3.48159e-06
0
0.000524217
0.000533386
0.00108415
0
-0.000553491
0
0.00113054
-0.00057158
0.00057367
-0.000575224
-0.0011644
0.000585865
-0.000589769
0
0.00117809
0
0.00118377
-0.00117896
-0.00117105
0.0011655
0.00116367
0
0.00057044
0
0
0.00110664
0
0
0.00106301
0
0
0
-0.00202383
0
-0.00192983
-0.000933974
-0.000918899
7.66537e-06
-0.000903253
0.00177218
0.000869448
0
0.00081184
0.00158637
0
0
0
-7.98471e-06
0
0
0
0
-0.00123875
0
0.00117205
0
0.00110615
0.00054358
-0.00107574
0.00101831
0.000502269
-0.000484543
0.000462934
0
0.000448985
0
0
0
0.000795955
0
4.97347e-06
0
0
0.000650027
0
0
-0.000659184
-4.50041e-06
0
0.000591485
0.000541723
0
0
-0.000504713
2.98552e-06
0
-0.000547164
0
0
0
0.000517361
0
0
-0.00048317
0
0
0.000898061
0
0
-0.000491837
-0.00099401
0.000497733
0
-0.000616168
-0.00278659
-0.00140018
-0.000889841
0
0.000967054
1.20419e-05
0
0
0
0.000143449
0
0
0
0
0
-7.0239e-05
-6.54652e-05
0
0
8.21149e-05
-0.00015783
0
-7.8823e-05
7.58654e-05
0
-0.000247556
0.00016776
-0.000160051
-6.8382e-05
0
-0.000150833
0
0
2.09057e-05
-3.9762e-05
-4.8873e-05
4.04087e-05
1.02091e-05
-1.68525e-05
0
0
4.62392e-06
0
-1.72336e-05
-2.74798e-05
-3.93214e-05
0
6.77844e-05
0
-0.000197164
0
0.000127825
0
-0.000158247
0
0
0
0
0
0
0
-0.000281425
0
0
-0.000323944
0
-0.000348296
-0.000357693
-0.000373248
0
0
-0.000403677
0.000824608
0
-0.00129706
0
-0.00045216
0
-0.000464285
-0.000940492
0.000477748
0
-0.000486739
0.000980212
0
0
0.00101197
0
-0.00102002
0
-0.00102582
0
-0.00206195
0.00103495
0.00205219
-0.00102543
-0.00102111
0
2.42498e-06
0
0.00098234
-0.00096596
0
0
-0.000932359
0.000925737
0
0
0.000890275
0
0.000869778
0
0.000832473
-0.000820875
0.00162867
-0.000798469
-0.000781566
0
-0.000748616
-0.000733977
0
0
-0.00137351
0.000669084
-0.0013301
0
0
0
0.00240278
0
-0.00114283
0
-0.00108963
0
0.00105533
-0.0010284
-0.000998847
0.000964152
0
0
6.86331e-06
0
0
0
-0.000828487
0
-0.000817508
0
-0.000760446
-0.000736202
0.000710767
0
-0.000716659
0.000713861
0
0.00067445
-0.00131907
0
-0.00128567
0.00061036
-0.000637184
0
0.000637833
0
0
0
-0.000611442
0
0
0
0
0
-0.000594646
0
-0.00116868
0
0.00119654
0.00113615
0
0
0.00237171
0
0
0
1.54874e-05
1.36226e-05
0.000308418
0
0
0
0
0
0.000255975
0
-0.000220123
9.64891e-05
9.16169e-05
0
0
-9.34448e-05
9.42955e-05
0
9.43401e-05
-0.000193371
0
0.000188352
-0.000190942
0.000182797
0
0
0.00012051
0
0
-6.69351e-05
0.000110755
4.96138e-05
-0.000100664
5.21967e-05
0
0
0
-2.82208e-05
0
-4.14383e-06
7.22645e-06
2.00779e-05
2.92048e-05
-4.51463e-05
0
7.14283e-05
0
-3.13186e-06
0
0.0002563
0
-0.000157364
0
0
-0.000405892
0
0
0.000247558
0
0
-0.000567237
0
0.000617876
0.000322074
0
-0.000678841
0
0.000714078
-0.00148377
0
0.000784975
0
0
0.000832254
0
0.000862064
-0.00087761
0
0
-0.000890829
0.000901976
0.000917535
0.000921579
0
0.000930642
0.00094134
0
0
0.00094138
0
-0.000937466
0
0.000936499
0
2.86885e-06
0
-0.000886901
0
0
0
0
-0.000841998
0
0
-0.001626
0
0
0
-0.00157539
0
-0.00151363
0
0.00148579
-0.00145181
0
0.00138068
0
0
0.00254924
-0.00127638
0.00124888
0
0
0
-0.00228346
0
0.00111316
0
0
0
0
0.0010039
0
-0.000953589
0.000943213
0.000915508
-0.000903259
0
0
0
0
0
0
0
0.00077312
0
-0.000738133
0
0.00219688
0
-0.00142404
-0.000690495
0.000697313
0
0.00137156
0
0.00132901
0
0
0
0
0
-0.00128958
-0.00131459
0
0
0
0
0.00129321
0
0.00252306
-0.00123014
-0.00123523
-0.00121745
-0.00116061
0
-0.00200603
0
-0.00175066
-0.00130517
0.0005166
0.000406266
0.00032731
0.000519582
0
0
-0.000334024
0
-0.000556162
0
0.000252554
0
0
-0.000238735
0
-0.000233656
0
0
0
-1.01251e-05
0
0
0
0
0
0
0.0001416
0
-9.62278e-05
-6.64814e-06
-7.13746e-05
0
6.74281e-05
-6.44603e-05
0
0
0
0
0
0
2.00664e-05
-6.24774e-06
-1.19489e-05
4.63275e-05
0
-0.000100828
0.000129046
7.60349e-05
0
-0.000110761
0
0.000141291
0
0
0.000372571
0
-0.000423359
0
0
0
0.0010482
0.000548274
-0.000575812
-0.00059494
0
0.000632683
0
-0.000669694
1.58045e-06
0
0
-0.000746768
0
-0.000784076
0
0.000800761
0.00081797
0
0
0
-0.000849346
-0.000860127
-0.000859989
0
0
-0.000875878
-0.000873433
0
0
0
0.00176657
0
-0.000885162
0
0.000855584
0
-0.00167752
-0.00167448
0.00163472
0
0
-0.00160503
0
-0.00156046
-1.02695e-05
0.00152964
0
0
0.00149537
0
0
0.00144899
-0.00140338
0.0027661
0
-0.00128528
0
0
-0.00244083
0.0012195
0
0
0
0
0.00109384
-0.00108654
-0.00106315
0
0
0
-0.000997869
-0.00196434
0
0.00281449
-0.000915181
-0.000898344
0
0.00172921
0
0
0
0
0.00163167
0
0
0
0
0
4.52267e-06
-0.00145928
0.0014287
-0.00139746
0
0.00140847
0
-0.00135148
-0.00134387
0
0
-0.00133593
-0.00133144
-0.00133363
-2.69037e-06
0.00132958
0
0
0
-0.00133674
-0.00131942
0
-0.00256737
1.22366e-05
1.708e-05
0.0011979
0.00235822
-0.00204616
0
0
0.00340638
0.00127212
3.58473e-05
-0.000768277
2.73798e-05
-0.000507421
0
0
0.000331713
0
0.0002987
0
0
0
0
0.000252034
0
0.000236145
0
0
0.000241595
0.000230493
0.000241819
0.000237544
0
0.000214239
0.000197436
0.000177089
-0.000143098
0
9.98926e-05
-7.39641e-06
-9.2457e-05
-9.15298e-05
0
9.26152e-05
0
0
-0.000152267
-0.000135068
0
0
-8.70098e-05
5.00999e-05
0
-6.46423e-06
0
8.6856e-05
-0.000115255
-0.000143529
0
0
0
0.000256962
0
-0.000316715
0
0
0.000404638
0
0
0
-0.00100545
-0.000526457
0
1.98088e-06
0
-0.000606466
0.000619908
-0.000638979
0.000659115
0
-0.000688668
1.87796e-07
0
0
-0.000752596
-0.000759429
-0.000770781
-0.000786888
0.000802425
0
0
0
0
0.00165332
0
0
0.00250123
0
-0.00169756
0
-0.00167528
0
-0.00171032
0
-0.00163755
0
0.00161589
0.00320623
-0.00157359
0
0.00154896
0.00154131
0
0.00149949
0.00147643
-0.00145899
0.00145513
-0.00145024
-0.00145473
0
0
9.4137e-06
0
-0.001342
-0.00130957
0
0
-0.00122937
0.00120787
0
0
0
-0.00114359
-0.00110172
0
0.00106538
0
0
0
0
0.000981027
0.000976363
0.00192775
-0.00186584
-0.00182749
-0.00179193
0
-0.00337693
0
0
0
0
-0.00160358
0
0
0.00154542
0
0
4.57873e-06
0.00290027
0.00145324
0.00139737
-0.00140765
-0.00282684
0.00141223
-4.60629e-06
0
0
0
0.00133522
0.00133564
0.00135305
-2.77043e-06
0
0
0
0
0.00134736
0
0
0.00128336
0.00126598
0.00124731
-0.00122808
-0.00118026
0.00163009
0.00331662
0
-0.00173484
0
3.59111e-05
-0.000815634
-0.000620921
0
-0.000424533
0
0
0
-0.000314103
0
0
0.000298495
0
0
-0.000267472
0
-0.000259606
0
-0.000504167
0.000259
1.27995e-05
1.24131e-05
-0.000241478
-0.000210835
-0.000393799
1.03054e-05
0
0
-0.000228969
9.6906e-05
9.69812e-05
0.000101781
0
-0.000305008
0.000191142
0.000174284
0.000149758
0.000132597
0
-9.93726e-05
0.00013564
-3.66722e-05
-1.27142e-05
-4.2144e-05
0
0
0
0
0.000157812
0
0
-0.000248925
0
0.000608026
0
-0.00035657
0
0
0
0
0.000485183
0
0.000525379
1.46671e-06
0
0.0005851
-0.000602217
0.000620643
0
0
0.00134121
0.000685936
0
0
0.00220399
0
0.00226769
0.000772046
-0.000786297
-0.00158721
0
0
0
5.18623e-06
0.00162315
0
5.87638e-06
0
0.00162342
0.00164529
-0.00164116
0
0.00164255
0
-0.00162378
0
-0.00158319
-0.00154747
0.00155095
0
-0.00301321
0
0
0
0
0
-0.00141649
0.00139046
0.00139927
0
0
9.48851e-06
0
-0.00131621
0.00254149
0
-0.0024422
0.00360628
0
0.0024238
0
0
0.00114086
0.00110856
-0.00219352
-0.00214687
0
0
0
0
0
0
-0.00378513
0
-7.67674e-06
0.00176811
-0.00172509
0.00168215
0
0
0
0
-0.00158485
0
-0.00161844
-0.00313284
0.00150829
0
-0.00148802
-0.00146152
-0.0014899
-0.00141001
0.00141664
0.00142546
-0.00142133
0.00272766
0
0
0.00137159
-0.0013248
0
-0.00275403
0.001327
0
0
0
-0.00276417
-0.00269918
0
0
0
-0.0025081
-0.00248781
0.00244589
0
0
-0.00324421
0
-0.00186722
0
-0.00102893
0.000784181
-0.000634769
0
0.000386258
0
0
0
0.000276339
-0.000301381
0
-0.000545407
0.000274911
0
0.000246622
0
0.000245353
0.000266305
0.000527404
-0.000547147
-0.000275226
-0.000833019
0.000249709
-0.000476438
0.000629074
-0.000177043
0
-0.000280744
0.00023821
0.000244656
0
0
-0.000236446
0.000207989
-0.00039924
-0.000365542
0
0
0
-7.83393e-06
7.2416e-06
4.60761e-05
8.1772e-06
3.58988e-05
0
0
0
0.000125703
-4.26029e-06
0
0
0
0
-3.22924e-06
0
0.000697424
0
0
0
0
0
-0.00048667
-0.00101752
0.000534266
0
0.00113062
-0.00117345
0
0.0012578
-0.00128356
-0.00195218
0
0
0
-0.00142217
-0.00144205
-0.0029552
0
0.00153624
-4.78475e-06
0.00154883
0.00157007
0
-0.00311587
-0.00314505
0
-0.00156726
0
0
-0.00157422
-7.43781e-06
0.00160835
0
0
0.00314578
0
-9.28109e-06
0
-0.00150292
0
0.00147637
0
0
0.00144002
0
0
0
-0.00137524
-0.0013906
0
-0.00272499
-0.00135013
0.00265647
0.00129965
0.00126351
-0.00241205
-1.74607e-05
-0.00235978
-0.00239825
-0.00475274
0.00232317
0
0.00228568
0.00222748
0.00218578
-1.50641e-05
0
0
0
0
0
0
0.00375842
0
0.00362979
0
0.00348166
0
-0.00169275
0
0.00166393
0
0.0031463
0
0.00162621
-5.17035e-06
-0.00298349
0
0
0
0
0.001417
0
0
0
-0.00419236
-0.00277513
0
-0.00138094
0.00131733
0.00271885
0.00276401
0.00268959
0.0026448
-0.0027402
0
-6.36167e-07
0.00546457
0
0
0
1.72212e-05
2.26059e-05
-0.00253634
0
-0.00199669
0.00350611
0
0.00183746
0
0.0010426
0
0.000574223
0
-0.00039216
0
0
0
0.000280538
0.000261263
0
0.000253555
-0.000251433
0
0
0
0
-0.000265884
-0.000274933
0.0002846
0
0.000542625
-0.000527402
0.000930626
-0.000405256
0
0
0.000291137
0
-0.000270276
0.000280811
0
0.000509064
0
0.0002153
0.000190165
-0.000175639
0
0
9.49369e-05
6.38463e-06
-3.96199e-05
1.68624e-05
-4.95795e-06
0
0
-9.67733e-05
-0.000128423
-0.000155772
-0.000179216
0
0
0
-0.000291773
0
-2.21273e-06
-0.000363353
0.000385745
0
-0.000868349
0.000908755
0.0014295
0.00149765
0
0
-0.00111198
0.00114769
0
-0.00122352
0.00126153
0.00127796
0
0
0.00135933
0
0.00141222
0.00144209
0.00145702
-0.00147747
0.00148593
-0.00148235
-0.00302515
0
0.00152637
0.00153931
0
0
0
-0.00158726
0
0.00154053
-0.0015705
0
0
-0.00153256
0
0.00302619
0
0
0
0.00146594
0
0
-0.00424345
0
0
0
0.00409453
0.00136165
0
0.00267305
0.00265573
-0.00516594
0.00255282
-0.00244584
-1.81669e-05
0.00233043
0
0.00231592
0.00231296
-0.00221876
0
1.72082e-05
-0.00435853
0
0.00211468
0
0
0
0
0
0
-0.00184956
0
-0.00182513
0.00179968
-0.00176967
0
0.00170434
0
5.76607e-06
0
5.5859e-06
0
0
0.00156651
0.00149856
0
-0.00306702
0
0
0
0
-0.00292752
0
0.00292256
-1.18262e-05
0.00284299
0
0
-0.00275838
-0.00281198
-0.00276542
7.13985e-06
0.00281046
0
0.00283304
-0.00554463
0
0
-0.00260741
0.00514546
1.88954e-05
0
0
0.00245143
-0.00373901
0.00261581
0
0
2.69701e-05
0
0
0
-2.37251e-05
0
0
0
-0.000271503
-0.00058512
0
0
0
-0.000603964
-0.000617855
0.000624294
0.000625004
0
0
0
0
0
-2.60708e-05
-0.000458667
0
0
0
0
0
0
-0.000305409
0
-0.000278809
0
0
0
0.000181601
0
0
0
4.96329e-06
0
-2.75178e-05
-1.64153e-05
0
0
0.000101193
-0.000125418
0
0.000180865
0.000204508
0
0
0
0
-0.000336202
0.000357323
-0.000379655
0.000811481
0.00171613
-0.000888281
-0.000927528
-0.000973071
0
0
0
0
0.00116049
0
0
0
-0.00129447
0
4.58807e-06
0
-0.00139774
0
-0.0014262
0
0
0
0.00148056
0
0
0.00153261
0.00153579
0.00151778
0
-8.37344e-06
0
-0.00152496
0
0
0.00149987
0
0
-0.00150466
-0.00148991
0
0
-0.00143336
0.00287108
0
0.00277226
0
0
0.00270101
-0.00269948
-0.00269504
0
0
-0.00257633
0.00250981
-0.00248103
0.00245586
0.00236318
0.00230183
0.00225289
0
-0.00226904
-0.00218354
0
-0.00213934
-1.76346e-05
-0.00213631
0
0
0
0
0
0
0.00188334
0
0.00182589
0
-0.00179984
0
0
0.00173033
0
-0.00332705
0
-0.00159311
0
0
0
0
0
0.00624706
-0.00301357
-0.00295544
0
0.0030047
0.00294915
0
0
-1.32526e-05
-0.00297574
0
-0.00285908
0
0.00281064
0
-0.00570041
0
-0.00285296
0
0.00281249
0
0
0.00273748
-0.0026283
1.51914e-05
0.00262728
0
0
0
-0.00249577
0
0
-0.000855108
0
-0.000511549
0
-0.000380692
0
0
0
0
0.000574452
-0.000648651
0
0
0.000638178
0.000634632
3.79088e-05
-0.000626229
0
0
0
0
0
0.0010559
0
0
0
0
-0.000411294
-0.000393405
0
0
-0.000336619
0
0
0.000259896
0
0
0
0
0
2.76873e-06
4.59492e-05
1.3499e-05
0
-4.31597e-05
0
0
0.000126686
-0.000304395
0
-0.000205517
0
0
0
0
0
0
0.000751286
-0.000802096
-0.000843306
-0.000877143
0.000919739
0
0
0
0
-0.00111241
-0.00113848
0.00117057
-0.00121028
0
0.00253288
0
-0.0013459
-0.00138323
0.00278719
0
0
0.0014558
-0.00145472
0.00147415
-0.00148222
0
0
8.31403e-06
-0.00152172
8.36719e-06
0
-8.82054e-06
0.00152433
-9.27876e-06
0
0
-0.00146374
0
0
-0.00296152
-0.00147133
0
0
0
-0.00279942
0
0
0
0
-0.00529849
0.00268091
-2.30868e-05
-0.00262557
0
0.00252395
0
-0.00243983
-0.00239189
0
-0.00225476
-0.00438999
0
0.00219711
0.00432006
0
0
0.00416134
-1.81039e-05
0
0
0
0.00195655
0
0
-0.00370749
-0.00181422
-0.00179174
0
0
0.00181729
0
0.00176252
0
0.00167846
0
0.00322762
0.00321039
-0.00331743
0
0
0
-0.00317215
-1.69563e-05
0.0030217
0
-0.00305385
0
0
0
0.00301418
0
0.00298757
0.0029508
0
-0.00293817
0.00290612
-1.0498e-05
0.00291946
-7.4663e-06
0
-0.00286812
0
0
0
0.0027303
1.15591e-05
-0.00533967
0
0.00253271
0.00309757
0
0
0
0
0
0.000448427
0
-4.2334e-05
0.000655672
0
0
0
0
0.00135814
0
0
0
0
-0.00147033
0
0
0
-0.000687976
0
0
-0.000586314
0
-0.000543289
0
0
0.000464629
0.000884108
0
0
0.000361368
0
-0.000303215
-0.000269475
0.000240498
0
0
0
0
-8.14464e-05
-5.14335e-05
0
0
3.55589e-05
0
0
0
0.000288316
0
0
0.000447222
0
0.000541602
0
0
0
-0.000721435
-0.0007627
0.000809124
-3.44699e-06
-0.000881993
0
0
0
0
0.00108157
0.00112419
-0.00114489
0.00117218
0.0012101
-0.00123393
0
0
-6.81801e-06
7.01568e-06
0.0013765
-0.001392
7.86304e-06
0.0014142
-0.00288127
0.00144742
0
0.00147521
-0.00147369
0
-0.00147828
0
-0.00149173
0.00149987
0.00147705
-0.00296842
0
0
0.00288935
0
0.0028716
0.00285601
0
0.0028056
0
0
-0.00273762
0
0
0
-2.44946e-05
-0.00261057
0.00257264
0.00252282
0
-0.00492212
0.00243677
0.00240008
-0.00236703
0
0.0022563
0.00218441
0.00219975
0
-0.00217533
0
0
-0.00414331
0.00206574
0
0
0
-0.00194477
0
0
0.00184403
0.00179785
0.00357415
-0.00359274
0.00359056
-0.0017785
0
-0.0034155
0
0
0
-0.00325665
-0.00642974
0.00328215
0.00327614
-0.00324798
-0.00322391
0.00318936
-1.89573e-05
0
0
-0.0030978
0
0.00307768
0
0
-0.00305235
-0.0060283
0
0
0.00615443
-0.00301604
0.00299989
-0.00295888
0.00302452
0.00297831
0.00587294
0
0
0
-0.00283414
0.00274014
0.00268276
0
-0.00208326
-0.00272426
0
0
0
0
0
0
0
0.00071117
-0.000680178
0
0
0.000714175
0
-0.00147604
0.00078092
0
0
0
0.000794663
0.000810459
0
0
0.000731197
-0.000717746
0
0
0.000649729
0.000614632
0
0
0
-0.000488302
0
0
0.000385314
0.000350457
0.000317015
0
-0.000247849
0
0
0
0.000230096
0
0.000102082
0
0
-6.2711e-05
0
-0.000175068
0.000227185
0
0.000322607
0.000376409
-0.000422288
0
-0.0010438
0
0
0.000666842
0
-5.51244e-06
-0.000775251
-5.87036e-06
0
0
0
0
0.00103876
0
-0.00110944
0
0
-0.00117264
-0.00120794
0
0
0.00132265
-0.00270347
7.93449e-06
0.00138053
-0.00139178
0.00140971
0.00142364
0.00146006
0
-0.00439879
-0.00293007
0
0
0
0.00590537
-0.00296573
0.00297381
0.00291606
0
0
-0.00285834
0
0
-0.00282876
0
-0.00276299
-0.00280239
0
0.00270572
0
0
0
0.00518301
0.00259331
0
0
0
-2.23407e-05
-0.00477023
0.00238756
0.00230567
0.00229646
-0.00447646
-0.00222089
-0.00217184
0
0
0
0
0.00418079
0.00206047
0.00203262
0
0
0
0
0
0
0
-0.00357008
0.00354148
-0.00350042
0
0
0
-0.00330534
0
0
0
0.00323285
0
-0.00651439
0.00327413
0.00325599
-0.00322587
-2.08262e-05
0
0
0.00625236
0
-0.0063884
-0.00323466
0
0.00310197
0.00305736
0
0
-0.00624326
0.00310525
0.00308541
0
0
-0.00302432
-0.00299893
0.00297872
0
0
0
0
0
0
0
0.00499064
0
0
0.00154136
-0.00116008
0
-0.000792129
0
0
0
0
0
-0.000675355
0
0.000702143
2.13429e-05
0
0.000817324
0
0.000830253
-0.000812864
0
0
0
0.000717228
-0.000684949
0
-0.000625892
0
0
-0.000522253
0
0
0
0.000391033
-0.000364314
-0.000332052
0
0
0
0
0.000332874
0.000279507
-0.000416961
0
-0.000103896
0
0
4.19056e-05
0
0.000146997
-0.000401712
0
-0.000581785
-0.000344716
0
0
0.000489279
0
0
-0.000601681
0.000615416
0.00065882
0.000731999
0.00149818
0.000773037
0
0
0
-0.00100162
0.00106363
0
0
0
0
-7.65141e-06
0
0
0
0.00259264
8.27669e-06
0
-0.00270648
-0.00136709
0
-0.00430536
0
0.0028309
0.00277716
-0.00273973
0
0
-0.00287982
0
-0.00288821
0
-0.00288856
0.00282846
0
0
0.00269307
-2.24351e-05
0
0.00268903
0.00266922
-0.00272569
0
0.00256518
0
0.00254912
-0.00250786
-0.00249926
0
0
0
0.00229843
0.0045379
-0.00451768
0
-0.00221394
0.00428307
-2.10948e-05
-0.00212734
0.00215973
-0.00216409
0
0
-0.00204002
-0.00198275
-0.00197414
0
0
0
0
0
0
-0.00352482
0.00350372
0.00345117
-0.00341032
0
0
0
0.00320455
0.00319641
0
-0.00318946
0
0
0.00633683
0
0
0.0032081
0.00631665
0
0
2.17543e-05
0.0031517
-2.0201e-05
-1.98355e-05
0.00325407
0.00317186
-0.00314255
0
0
0.00311159
-0.00311685
-0.00622451
0.00308908
0
0
0.00614267
-0.00914217
0.00607837
0.0060071
0
-0.00573278
0
0
0
-0.00856901
-0.00265602
0
-0.00248999
2.71808e-05
0.000764369
1.12368e-05
-0.000639926
0
0
0.00065076
0
0.000748152
0
0
-0.00167517
0
-0.000854478
0
-0.000837909
0
0
0
0
0
0.00134637
0
0
-0.000587292
0
0.00105637
0
0
0
0.000371842
0
0
0.000551605
0
0
-0.000355937
-2.0921e-05
-2.03058e-05
0.000209436
0.000135224
0
0
0
0
0
0
0.000464076
0.00029189
0.000577752
0
0
0
0
0.000527396
0
0.000596988
-0.00062652
0
8.36194e-06
-0.00159918
-0.00159963
0
-0.000950765
0
0
-0.00109693
0.00110811
0
0
0
-7.2318e-06
0
0
0.00136546
-0.0012987
-0.00386318
0
0.00569303
-0.00284651
0
0.00294385
0
0
0
-1.51594e-05
0
0
0.00293443
0
0
0
0.00300324
-0.00580916
0.00287687
0.00277832
-0.00282538
0.00285453
0
2.19766e-05
-0.00286383
0.00279892
-0.00273856
-0.00260824
-0.00265073
2.42535e-05
0
0
-0.0026273
0
0.00251648
-0.00242018
-0.00238096
-2.169e-05
0
0
-0.00221347
-2.11208e-05
0.00223552
-0.00224772
0.00224596
0
0
0
0
0
0
0
0
0
0
0.0036465
0.00361481
-0.0072528
-0.0072042
0.0035686
0.00354513
0
0
0
-0.00670422
0
0.00329467
0
0
-0.00324881
-0.00329481
0
-0.00654291
-0.00652656
0
0
-0.00325169
-0.00326652
0.00328359
-2.13109e-05
2.10327e-05
2.07762e-05
-2.04938e-05
0
0
0
0
0.00320228
-0.00318443
0
0
-0.00634651
0.00633682
1.64869e-05
-0.00614706
0
0.00582282
0.00563649
0
0
0.00402178
0.00253221
0
0.00183603
0.00135469
-5.33074e-05
0.000579129
0.00102471
-0.000466393
-0.000559437
-2.19135e-05
0
-0.000714081
0.000694191
0.0007076
0.000741151
0
0
0
0
0
0
0
0
0.000635611
-0.0006441
0
0.000589773
0.000576671
0
-0.000994921
0
0
0
-0.000721724
0
0
-0.000574469
0.000493396
0
0.000374079
-0.000575951
-0.000259966
0.000177644
-2.10513e-05
7.62007e-06
3.28929e-05
-8.57874e-05
0
0
0
-0.000271127
1.40047e-05
-0.000279912
0
0
-0.000522925
-0.000600682
1.02471e-05
0
-0.00125597
-0.000680689
0
-0.00077721
0.0016825
0.000882743
0.000904227
0.000968604
0
-0.001032
0
-0.00107316
0
0.00106026
0.00122652
-6.96349e-06
0
0.00132087
-0.00134235
0
-1.56522e-05
-0.00279862
-0.002901
0.00277735
0
0.00293068
0
0
0.00272397
0.0027901
0
-0.00291393
-0.0056542
0
0
0
0.00308854
0.00290565
-0.00595565
-0.00597838
-0.00308845
-0.00303037
0.00296533
-0.00290329
0.00296192
0
0.00269968
0
0.00260149
-0.00253911
0
0
0.0026358
0
-0.00522179
-2.1465e-05
0
0.00225395
0
0
-0.0023398
0.00229946
0.00236896
-0.00458221
-0.00446341
0
0
0
0.00417596
0
0
0
0
0
0
-0.00754798
0
0.00775671
0.00379651
0
-0.00371714
-0.00357529
0
-0.00356894
0.00349509
0
0
0
0
-0.00333952
0.0066924
0
0.00335013
0.00333454
0
0
0
0
-0.00338226
0.00672138
-0.00336652
-0.0067435
0.00335286
0.00335275
0
0
0
0
0
0
0
0
0
-0.0129576
0
0
0.00595809
-0.00570663
0
0
0.00297072
0
0
-0.000625193
-0.000468346
-0.000675973
-0.000312651
-0.000420083
0.00041762
0.000800863
-0.000399691
0
0
-0.000929341
-0.000522
0
0
0
0
0
0
0
0
-0.000510998
-0.000557614
0.000530417
0
-0.000517826
0
0.000436889
0.000444359
0
0.000351872
0
0
0
0
0
-0.000463837
0.00038194
0
0.000257249
0
-0.000392085
-0.000118604
-2.56252e-05
-4.08419e-05
1.04401e-05
0
0
0.000154005
0
-0.000578741
-0.000296127
0
0
0.000973742
0.000539626
-0.000545159
0
0.000662769
0.000673112
0
0
-0.000843699
0.000973618
-0.000974219
0
0
-8.75227e-06
0
-0.00103046
0.00101451
-0.00107276
6.58729e-06
0.00275121
0
-0.00135117
0
0
0.00280383
0.0027791
0
0.00276612
-0.00303726
-0.00304216
0
0
-0.00571604
0
0
0.00295741
0.0030844
0
0.00313391
0.00285964
-0.00610352
0
0.00292853
0.00300527
-2.03181e-05
-2.01948e-05
-0.00305392
0
0
0
0.0027884
0.00263672
0
-0.00259156
0.00266068
0
0
0
0.00278527
0.00255454
0
0
0.00233791
0
0.0024073
0
-0.00243632
0.0045071
0.0041814
0
0.00459456
0
4.04421e-05
0
0
0.00391236
-0.00385499
0.00386029
0
0.00770655
0
-0.00395964
-0.00391132
0.00390189
0.00386708
0.00367622
0
0.00360171
0.00355201
0.00348187
0
0
0
0.0033538
-0.00343761
-0.00346202
-0.00350238
0.00342952
0
0
0
0
0.00343319
2.39065e-05
0.00344924
0.00342682
0
2.19518e-05
0.0034048
-0.00339905
-0.00339116
0
0
0
0
0.00657462
0
0.00656662
0
0
-0.00611184
0
0
0
-0.00272173
0
0
0.000123824
0
9.83699e-05
9.28795e-05
-4.49133e-06
0
-0.000112778
-4.41665e-05
0
0.00011999
0.000208241
0
0
0
0
0
0
0
-0.000263598
0
0.000683035
0
-0.00039957
0.000376934
-0.000373451
0.000361482
-0.000387418
0
0
-0.000323461
-0.000292897
-0.00027349
0
0
0
0.000169869
-0.000330684
0.000251564
0
0
2.18213e-05
0
0
7.83981e-05
3.63614e-05
6.17127e-05
0
-0.000179333
0
0.00027956
0.000315914
0
0
-0.000452871
0
0
0
0
-0.000663443
0.000667659
-0.000722531
0
6.92285e-06
0
-0.000984886
0.000957607
0.00103987
0
0.00102284
-0.000996867
0
6.18465e-06
6.21192e-06
0
0
-0.00132926
0
0.00135479
0
0
-0.00286221
-1.15655e-05
-0.00297286
0
0
0.00294238
0
0
0
0
0
-0.0060688
-0.00287567
0.00303518
0
-0.00298432
-0.00284142
0.00591797
0.0030046
0
-0.00302721
0
0
-0.00285357
-0.00271601
0
0.00536799
-0.00273192
0
0.00273853
0
0
0
0
-0.00240564
2.09269e-05
-0.00263906
0
0
-0.0024888
0
-0.00216201
0
-0.00451332
0
3.82526e-05
0
0
-0.00402763
-3.293e-05
-0.00368745
0
-0.00737254
0
0.00378942
0.00383363
-0.00395221
2.32473e-05
0
0
-0.00363108
-0.0034801
-0.00336382
-0.0033517
0
0.00333049
0.00336361
-0.003579
0.00354979
0.00358025
-0.00351511
0
0
0
-0.00350923
0.00351333
-0.00347424
-0.00347133
0
0
-0.00344353
2.14106e-05
0.00687994
0.00342485
0
0
-0.00338613
0
-0.00663974
-0.00330195
0
0.00654379
0
-0.00615096
-0.00584493
-0.00581815
0
0
-0.000243424
0
2.53127e-05
-0.000275494
0
0
-0.000123374
0
0
-0.000280321
0
0.000191372
0.000213026
-0.000165918
0
0
-5.75193e-05
0
0
0
4.19693e-05
0
-0.000241666
0
0
-0.000216139
0.000219055
-0.000237516
0
0
0
0
0.000234202
0.000217883
0
0.000156906
0
-0.000126571
9.46234e-05
-0.00016463
0
-3.84134e-05
9.61758e-05
0
-2.83893e-05
1.58898e-05
1.46138e-05
-0.000200814
0
0.000223602
0
0
0.000327596
0
0
0
0.000469835
0
-0.000559469
0
0.00062825
-0.00065174
-6.31755e-06
0
-0.000835408
0
0.000904829
-0.000864673
-0.000954468
0
0
-0.000983575
0
-0.00113248
-0.00122649
0.00121762
0
0.0012624
0
-0.00254954
0
0
-0.00139739
0.0043826
0.00284398
0.00143773
0
0
-0.00291377
0
0
-0.00291834
-0.00305398
-1.36679e-05
0
0
0.00290879
0.00301039
-1.81332e-05
1.83329e-05
0
0
-1.86494e-05
0
0.0028442
0
-0.00272224
0
1.79862e-05
-0.00270094
-0.00257775
-0.00272779
0
0
0.00259685
0
0.00245914
2.08892e-05
0.00255839
0
0
0.00238792
-0.00230807
0.00219989
-0.00214119
0
0
-0.00663228
-0.00223959
0
0
0.00416128
0
0
-2.86315e-05
0
-0.00361483
0.00364244
0
-0.00371957
0