/*--------------------------------*- C++ -*----------------------------------*\
  =========                 |
  \\      /  F ield         | OpenFOAM: The Open Source CFD Toolbox
   \\    /   O peration     | Website:  https://openfoam.org
    \\  /    A nd           | Version:  8
     \\/     M anipulation  |
\*---------------------------------------------------------------------------*/
FoamFile
{
    version     2.0;
    format      ascii;
    class       volScalarField;
    location    "100";
    object      wpod_2;
}
// * * * * * * * * * * * * * * * * * * * * * * * * * * * * * * * * * * * * * //

dimensions      [0 1 -1 0 0 0 0];

internalField   nonuniform List<scalar> 
12225
(
-5.94322e-16
2.96856e-17
-2.15186e-18
1.593e-17
-2.65903e-17
-3.16305e-18
2.13156e-19
-1.46294e-17
-8.47331e-18
2.65255e-18
5.9315e-18
-5.14363e-18
-6.40659e-18
3.74876e-18
-6.05464e-18
-5.94006e-18
2.36181e-18
4.39976e-18
2.78238e-18
-3.5099e-19
-2.13391e-18
-1.04105e-18
-2.3576e-18
2.46804e-19
-5.64609e-19
-5.61454e-19
-1.06139e-18
9.62778e-19
1.91787e-20
4.29832e-19
-4.75139e-19
-1.48785e-19
1.85152e-18
7.78456e-19
1.18667e-18
-1.14591e-18
1.2573e-18
-7.26773e-19
-1.03864e-18
-8.49814e-19
-6.00086e-19
1.21009e-18
-9.48337e-19
1.53488e-18
3.89363e-19
-8.44837e-19
-5.9132e-19
1.19593e-18
-1.39967e-19
-4.98205e-19
1.0995e-18
-4.52644e-19
-4.47264e-19
-2.63555e-19
-3.57618e-19
-4.74554e-19
6.67696e-19
5.37e-20
1.717e-19
-7.49587e-20
2.21328e-19
9.04676e-21
7.7188e-20
-1.10033e-19
5.22771e-19
-4.54326e-19
3.4796e-19
2.99595e-19
-4.08951e-19
9.33163e-20
-1.1731e-19
2.9231e-19
-4.68996e-19
-3.19883e-19
-1.92042e-19
1.10825e-20
1.36627e-19
8.46933e-20
3.93974e-20
-2.24839e-20
9.81502e-20
7.35904e-20
1.98336e-20
2.97486e-20
8.31963e-20
4.4678e-20
-3.03687e-20
-2.35554e-20
2.40859e-20
3.10555e-20
3.0183e-20
2.78936e-21
7.40635e-23
-2.92189e-21
-8.06675e-21
7.54156e-21
-7.4482e-22
-5.13696e-22
0
0
0
0
0
0
0
0
0
0
0
0
0
0
0
0
0
0
0
0
0
0
0
0
0
0
0
0
0
0
0
0
0
0
0
0
0
0
0
0
0
0
0
0
0
0
0
0
0
0
0
0
0
0
0
0
0
0
0
0
0
0
0
0
0
0
0
0
0
0
0
0
0
0
0
0
0
0
0
0
0
0
0
0
0
0
0
0
0
0
0
0
0
0
0
0
0
0
0
0
0
0
0
0
0
0
0
0
0
0
0
0
0
0
0
0
0
0
0
0
0
0
0
0
0
0
0
0
0
0
0
0
0
0
0
0
0
0
0
0
0
0
0
0
0
0
0
0
0
0
0
0
0
0
0
0
0
0
0
0
0
0
0
0
0
0
0
0
0
0
0
0
0
0
0
0
0
0
0
0
0
0
0
0
0
0
0
0
0
0
0
0
0
0
0
0
0
0
0
0
0
0
0
0
0
0
0
0
0
0
0
0
0
0
0
0
0
0
0
0
0
0
0
0
0
0
0
0
0
0
0
0
0
0
0
0
0
0
0
0
0
0
0
0
0
0
0
0
0
0
0
0
0
0
0
0
0
0
0
0
0
0
0
0
0
0
0
0
0
0
0
0
0
0
0
0
0
0
0
0
0
0
0
0
0
0
0
0
0
0
0
0
0
0
0
0
0
0
0
0
0
0
0
0
0
0
0
0
0
0
0
0
0
0
0
0
0
0
0
0
0
0
0
0
0
0
0
0
0
0
0
0
0
0
0
0
0
0
0
0
0
0
0
0
0
0
0
0
0
0
0
0
0
0
0
0
0
0
0
0
0
0
0
0
0
0
0
0
0
0
0
0
0
0
0
0
0
0
0
0
0
0
0
0
0
0
0
0
0
0
0
0
0
0
0
0
0
0
0
0
0
0
0
0
0
0
0
0
0
0
0
0
0
0
0
0
0
0
0
0
0
0
0
0
0
0
0
0
0
0
0
0
0
0
0
0
0
0
0
0
0
0
0.000516661
0.00133884
0
0
0
-0.00101238
0
0
0
0
0.000378516
0
0
0
0
0.00016914
0
0
0
0
0
0
0
9.08296e-05
-8.28642e-05
7.19894e-05
6.12524e-05
0
0
-4.06307e-05
-3.59607e-05
0
0
-2.60964e-05
0
0
1.98736e-05
0
1.65167e-05
3.05872e-05
0
0
0
0
0
1.8284e-05
1.71257e-05
1.57363e-05
0
-1.29836e-05
0
1.05467e-05
9.36009e-06
0
0
0
5.24482e-06
0
0
0
0
0
0
0
0
4.76852e-07
0
0
-2.30037e-06
-3.51858e-06
0
5.06262e-06
-5.7595e-06
0
7.05106e-06
0
0
-8.19447e-06
0
9.94287e-06
0
-1.19832e-05
-1.26385e-05
-1.32812e-05
-2.71983e-05
2.98386e-05
0
0
0
3.56938e-05
3.95574e-05
-4.20048e-05
0
4.6269e-05
4.88997e-05
5.23265e-05
0
0
0
6.13663e-05
0
0
-6.86328e-05
0
0
-7.98826e-05
0
0
9.38237e-05
9.91751e-05
0
-0.000108404
0
0.00012059
0
0.000129983
0.000133799
0
0
0
0
0
0
0
0.00015123
-0.000152995
0
0
0
0
-0.000314172
0
0.000318539
-0.000307414
0
0
0
0.00030648
0.000305518
0
0.000306143
0.000305859
-0.000309168
0
0
-0.000291644
0
0
0
0
0.000266852
0.000254915
0
0.000259183
0
0
0.000238133
0
0.000249306
0
0
0.000225872
0
0.000218256
0
0
0
-0.00021207
0
0.000203148
0
0
0
0
0
0
0
-0.000371414
0
0
0.000329482
-0.00322581
0
0.000250577
0
-1.30955e-05
7.0012e-05
9.08269e-05
0
0.000108746
5.40292e-05
0
0
0
0
2.04773e-05
0
-5.58743e-06
0
0
6.32284e-06
0
-1.13188e-05
-2.44471e-06
9.38143e-06
-1.17872e-05
-1.22821e-05
0
0
1.14877e-05
-1.04546e-05
0
0
8.25039e-06
0
0
-6.71202e-06
0
6.39394e-06
-1.20119e-05
0
0
-2.19496e-05
-2.13632e-05
-2.10891e-05
9.55249e-06
-8.60166e-06
-2.58413e-05
1.54605e-05
7.18133e-06
0
-5.09458e-06
5.70293e-06
0
0
0
-4.071e-06
0
1.19315e-05
0
1.3778e-05
0
-1.55385e-05
0
1.47711e-05
-7.97707e-06
0
-1.37691e-05
-4.93544e-06
-4.82636e-06
0
-2.02387e-07
9.88563e-07
0
6.86841e-07
-4.37986e-06
0
-5.00737e-07
0
-6.52291e-06
0
1.61877e-05
6.14647e-06
-6.42045e-06
-1.09716e-05
1.27527e-05
0
0
0
-4.5733e-05
-1.95199e-05
2.4784e-05
0
2.12198e-05
-2.68275e-05
-2.987e-05
0
0
0
-3.04417e-05
0
6.4463e-05
8.27819e-05
-7.00299e-05
0
-3.3538e-05
0
-7.64641e-05
3.58853e-05
4.42096e-05
0
0.000134108
-9.78265e-05
-5.7423e-05
0
-5.53653e-05
-0.000160664
0
-0.000128517
-0.000109551
-0.00012128
0
0
0
6.79508e-05
7.62734e-05
0
0.000124901
0.000141069
0
0.000163049
0.000288367
-0.000165096
-0.000133731
0
0
0
-0.000147543
0.000140041
0.000279043
-0.000153861
0.000167182
0.000182336
0
0
-0.000174634
0
0
0.000295822
0
0.000150545
-0.000130035
0
0.00014847
0
0
-0.000121774
0.000298677
-0.000154962
0
0
0.000109146
0
9.71078e-05
0
0
0
0.000105166
0
-0.000112215
0
0
0.000184266
-0.000257543
0
0
0
0.000391585
0
-0.000416987
-3.01336e-06
0.00237163
0
-0.000390439
0
0
1.04425e-06
2.5998e-05
7.26817e-06
-8.92058e-07
0
0
1.72468e-05
4.55993e-05
-5.13935e-05
0
-4.44518e-05
1.73972e-05
0
-4.50396e-05
-2.34897e-05
4.33158e-05
2.20685e-05
0
-2.74229e-05
-1.70685e-05
0
-8.13926e-06
0
-5.92717e-06
-2.91518e-06
0
0
0
0
0
0
-2.75124e-06
4.18339e-06
0
0
0
-4.31465e-07
1.57373e-06
8.48459e-06
-9.48039e-07
-5.69451e-07
3.61106e-06
4.09478e-07
1.52214e-06
0
-1.54044e-06
4.10789e-07
0
0
6.69495e-06
0
0
1.38906e-06
4.41027e-07
-9.92415e-07
0
3.09732e-06
0
1.83558e-06
4.20873e-06
-7.23908e-06
-4.32223e-06
0
5.92232e-06
0
-2.35253e-05
-1.6439e-05
-1.18046e-05
4.52651e-06
-8.43643e-06
0
0
1.01642e-05
1.00559e-05
0
-6.7466e-06
0
4.62697e-05
9.74378e-07
-9.80557e-07
-3.03413e-05
0
2.23706e-05
9.74336e-07
0
0
0
-3.02963e-05
0
0
0
0
0
-4.56775e-05
0
-4.77483e-05
-3.75102e-05
4.73556e-05
0
5.0301e-05
0
5.14197e-05
-4.54405e-05
-0.000171821
0
-0.000190217
-6.07631e-05
0
-0.00014239
-0.000137626
0.000213423
0
8.28771e-05
7.00119e-05
0.000264188
0
0
0
8.56258e-05
0
0
-8.34939e-05
-8.76433e-05
0
0
-0.000201997
0
0.000181622
0.000206758
0
0
-0.000205338
-1.191e-06
-1.06865e-06
0
-0.000445932
0
0
0
0.000238465
0
-0.000387443
-0.000188438
0
-0.000215805
0
0
-0.000607302
0.000333914
0
0.000334033
-0.000211107
0
0
0
-0.000458989
0
-0.000124621
0
0
0
0
0
0
-0.00033584
0
-0.000128879
0.000546443
0
0
-0.000320584
-0.000158473
0.000250472
0.000354965
-0.00172031
-0.00247434
-0.000584601
-0.00016578
0
0.000196744
-7.60456e-05
0
-4.33004e-05
0
4.59502e-05
0
1.19545e-05
1.38663e-05
-1.9127e-06
0
1.05743e-06
0
0
4.17794e-06
0
1.08063e-07
0
0
1.74034e-07
7.1402e-06
6.26665e-06
8.42054e-06
0
3.13498e-05
0
1.52843e-05
0
0
-1.69761e-05
0
1.52609e-05
4.46339e-07
-2.6504e-05
2.19998e-05
0
0
8.98194e-06
0
8.85174e-06
-8.82902e-06
-8.46068e-06
0
8.50093e-06
9.65349e-06
-2.03051e-05
1.04757e-05
1.0218e-05
0
0
-1.20402e-05
0
0
2.33531e-05
2.46879e-05
0
0
0
0
2.32882e-05
-1.95031e-05
-2.20102e-05
-4.11747e-05
0
8.79626e-07
0
2.44481e-05
9.02897e-07
2.5877e-05
-2.55404e-05
9.18105e-07
0
-2.37604e-05
-2.55288e-05
-4.80631e-05
0
2.42373e-05
0
-6.0991e-05
3.13621e-05
-2.96358e-05
3.50296e-05
6.64422e-05
-3.06837e-05
3.15252e-05
0
-7.00493e-05
0
-6.58723e-05
7.11997e-05
7.8818e-05
-7.3987e-05
-7.71782e-05
0
-4.09805e-05
0
0
-8.55716e-05
0
0
-9.80646e-05
0
0
0
0.000216103
0
0.000238467
0.000118426
0.00013401
1.40083e-06
0.000127981
-0.000264779
-0.000133732
0
-0.000135779
-0.000301185
0
0
0
-1.30986e-06
0
0
0
0
0.0003446
0
-0.000347137
0
-0.000338537
-0.00017819
0.00034277
-0.000353078
-0.00018124
0.000183852
-0.000185075
0
-0.000191685
0
0
0
-0.000389724
0
1.71674e-06
0
0
-0.000373056
0
0
0.00036394
-1.70828e-06
0
-0.000321861
-0.000349369
0
0
0.000352921
1.61613e-06
0
0.000259221
0
0
0
-0.000215252
0
0
0.00030729
0
0
-0.000600487
0
0
0.000269685
0.000386223
-0.000233022
0
0.00107454
0.00116696
0.000462877
0.000289213
0
-0.000364294
1.84725e-06
0
0
0
-4.06105e-05
0
0
0
0
0
-8.52495e-07
4.94716e-07
0
0
7.33908e-06
-1.75741e-05
0
-9.3193e-06
7.83035e-06
0
-2.65347e-05
2.67981e-05
-3.62578e-05
-2.1044e-05
0
-7.96755e-05
0
0
2.62258e-05
-5.05041e-05
-7.31576e-05
6.71969e-05
2.06978e-05
-3.73153e-05
0
0
-9.6225e-07
0
3.35886e-05
3.16176e-05
3.16019e-05
0
-3.17967e-05
0
6.36621e-05
0
-3.04447e-05
0
2.987e-05
0
0
0
0
0
0
0
3.13815e-05
0
0
3.20662e-05
0
3.16239e-05
3.06754e-05
3.07784e-05
0
0
3.17469e-05
-6.38456e-05
0
9.51589e-05
0
3.27583e-05
0
3.40297e-05
6.09289e-05
-3.18269e-05
0
3.5965e-05
-7.0498e-05
0
0
-7.512e-05
0
6.94777e-05
0
7.70267e-05
0
0.00015293
-7.68721e-05
-0.000161298
8.07883e-05
7.85271e-05
0
1.6683e-06
0
-8.62639e-05
8.89669e-05
0
0
9.79071e-05
-9.89216e-05
0
0
-0.000107202
0
-0.000113482
0
-0.000124029
0.00012336
-0.000251944
0.00012823
0.00012973
0
0.000134166
0.000137805
0
0
0.000309763
-0.000164086
0.000318439
0
0
0
-0.000661091
0
0.000339303
0
0.000341469
0
-0.000348854
0.000349192
0.000355508
-0.000363717
0
0
1.48725e-06
0
0
0
0.000362131
0
0.000348743
0
0.000350399
0.000358064
-0.00036727
0
0.000354144
-0.00034425
0
-0.000335162
0.000668864
0
0.000645663
-0.000341202
0.00032101
0
-0.000291358
0
0
0
0.000252794
0
0
0
0
0
0.00027256
0
0.000499921
0
-0.000503397
-0.000484679
0
0
-0.000825583
0
0
0
1.60289e-06
1.54225e-06
-8.61281e-05
0
0
0
0
0
-6.39492e-07
0
-2.09418e-05
1.16758e-05
1.26437e-05
0
0
-1.558e-05
1.5745e-05
0
1.26345e-05
-1.82492e-05
0
1.85586e-05
-3.2258e-05
4.35513e-05
0
0
6.28934e-05
0
0
-5.73637e-05
0.00011566
5.73821e-05
-0.000110469
4.90131e-05
0
0
0
-4.39633e-05
0
-4.17014e-05
-4.00434e-05
-3.96675e-05
-3.77076e-05
3.73561e-05
0
-3.54192e-05
0
1.14161e-06
0
-6.55132e-05
0
3.32372e-05
0
0
6.70196e-05
0
0
-3.50221e-05
0
0
6.89049e-05
0
-6.49325e-05
-3.38651e-05
0
6.84045e-05
0
-6.94475e-05
0.000139234
0
-7.13215e-05
0
0
-6.72188e-05
0
-6.76593e-05
6.28318e-05
0
0
7.34018e-05
-7.16974e-05
-7.37492e-05
-7.55477e-05
0
-7.2388e-05
-6.48731e-05
0
0
-8.18185e-05
0
8.17336e-05
0
-7.65659e-05
0
1.7327e-06
0
8.77063e-05
0
0
0
0
9.77984e-05
0
0
0.000206515
0
0
0
0.000220264
0
0.000230334
0
-0.000242253
0.000239406
0
-0.0002553
0
0
-0.000593142
0.000307466
-0.000296793
0
0
0
0.000630472
0
-0.000326231
0
0
0
0
-0.000336218
0
0.000355837
-0.000343632
-0.000345813
0.000348218
0
0
0
0
0
0
0
-0.000345821
0
0.000352434
0
-0.00102224
0
0.00065524
0.00033883
-0.000330588
0
-0.000634789
0
-0.000619074
0
0
0
0
0
0.000556349
0.000554189
0
0
0
0
-0.000520772
0
-0.00102674
0.000543957
0.000533572
0.000537791
0.000544536
0
0.000631963
0
0.000409227
0.000304896
-0.000118626
-8.91603e-05
-6.11265e-05
-8.39855e-05
0
0
1.54798e-05
0
-2.83014e-05
0
3.77617e-05
0
0
-4.07707e-05
0
-4.22191e-05
0
0
0
-1.22657e-07
0
0
0
0
0
0
6.67674e-05
0
-6.06795e-05
8.92452e-07
-5.83397e-05
0
5.62406e-05
-4.9582e-05
0
0
0
0
0
0
3.79798e-05
-3.81377e-05
3.98509e-05
-7.50445e-05
0
6.96008e-05
-6.74047e-05
-3.16462e-05
0
3.41474e-05
0
-3.47534e-05
0
0
-6.87231e-05
0
6.845e-05
0
0
0
-0.000140412
-6.78389e-05
6.90236e-05
6.5422e-05
0
-7.10691e-05
0
7.1098e-05
-2.48596e-06
0
0
6.84888e-05
0
6.66398e-05
0
-6.6662e-05
-6.61433e-05
0
0
0
6.96373e-05
6.68934e-05
6.98546e-05
0
0
6.84429e-05
6.99419e-05
0
0
0
-0.000145826
0
7.20568e-05
0
-7.34091e-05
0
0.000159954
0.000149213
-0.000158749
0
0
0.000182961
0
0.000185049
-3.05149e-06
-0.000201465
0
0
-0.000208723
0
0
-0.000216899
0.000230941
-0.000455741
0
0.000247113
0
0
0.000564771
-0.000293146
0
0
0
0
-0.000292778
0.000302563
0.000305839
0
0
0
0.000325948
0.000650839
0
-0.00100771
0.000319255
0.000324844
0
-0.00065888
0
0
0
0
-0.000643146
0
0
0
0
0
4.76219e-06
0.000619081
-0.000636181
0.000658764
0
-0.000616628
0
0.000569846
0.000585295
0
0
0.000566211
0.000548311
0.000544754
-3.61021e-06
-0.000538873
0
0
0
0.000509324
0.000507845
0
0.000987694
-4.53127e-06
-4.58082e-06
-0.000534121
-0.00103352
0.00156145
0
0
-0.000792187
-0.00027966
2.72255e-06
0.00013372
2.82478e-06
5.65741e-05
0
0
3.8367e-06
0
2.59925e-05
0
0
0
0
6.1887e-05
0
5.04808e-05
0
0
4.14846e-05
3.88969e-05
3.92779e-05
4.83743e-05
0
6.63944e-05
6.91889e-05
7.02556e-05
-6.92678e-05
0
6.10701e-05
9.59372e-07
-5.40971e-05
-5.27532e-05
0
4.66933e-05
0
0
-7.60254e-05
-7.24877e-05
0
0
-0.00011524
0.000116985
0
2.92931e-06
0
-7.20297e-05
7.03823e-05
6.82989e-05
0
0
0
-6.7389e-05
0
6.59558e-05
0
0
-7.00553e-05
0
0
0
0.000134246
6.77594e-05
0
-2.91914e-06
0
6.33054e-05
-6.50326e-05
6.51648e-05
-6.84526e-05
0
6.59465e-05
-2.73603e-06
0
0
6.91572e-05
7.19416e-05
7.08178e-05
6.66495e-05
-6.19358e-05
0
0
0
0
-0.000143702
0
0
-0.000219628
0
0.000129226
0
0.000139968
0
0.000135683
0
0.000145288
0
-0.000156796
-0.000311201
0.000155099
0
-0.000174774
-0.000172861
0
-0.00018082
-0.00019118
0.00019792
-0.000192607
0.000203126
0.000189098
0
0
2.88834e-06
0
0.000213062
0.000223874
0
0
0.00023576
-0.000254865
0
0
0
0.000265786
0.000278176
0
-0.000299382
0
0
0
0
-0.000312205
-0.00031422
-0.000603241
0.000623635
0.00060925
0.000617366
0
0.00127227
0
0
0
0
0.000602094
0
0
-0.00059814
0
0
5.27899e-06
-0.00118524
-0.000597243
-0.000631172
0.000600287
0.00116196
-0.000569857
-4.87989e-06
0
0
0
-0.00054666
-0.000530879
-0.000524838
-4.15495e-06
0
0
0
0
-0.000482499
0
0
-0.000486657
-0.000488233
-0.000513228
0.000504596
0.000487377
-0.00148886
-0.000991481
0
0.000479548
0
3.17547e-06
0.000113132
6.49403e-05
0
1.86158e-05
0
0
0
-2.02796e-05
0
0
6.05435e-05
0
0
-5.65359e-05
0
-4.76615e-05
0
-7.8117e-05
3.88578e-05
1.2737e-07
-2.41191e-08
-5.64355e-05
-6.37893e-05
-0.000138185
-5.65793e-07
0
0
-0.000115496
5.34125e-05
5.07484e-05
4.80048e-05
0
-0.000117263
7.27091e-05
7.15016e-05
7.54969e-05
7.68818e-05
0
-7.69667e-05
0.000151041
-7.60649e-05
-7.41339e-05
0.000148348
0
0
0
0
-6.34493e-05
0
0
6.8582e-05
0
-0.000134507
0
6.60719e-05
0
0
0
0
-6.79084e-05
0
-6.17793e-05
-3.28724e-06
0
-6.47492e-05
6.46198e-05
-6.45945e-05
0
0
-0.000109944
-5.82489e-05
0
0
-0.000176437
0
-0.000186826
-6.12859e-05
5.85115e-05
0.000117078
0
0
0
5.19148e-06
-0.000125607
0
4.92705e-06
0
-0.000141631
-0.000126502
0.000130315
0
-0.000139273
0
0.000131629
0
0.000149707
0.000153023
-0.000141489
0
0.000332944
0
0
0
0
0
0.000192431
-0.000199228
-0.000180641
0
0
3.19091e-06
0
0.0002017
-0.000430894
0
0.000435287
-0.000680033
0
-0.000497578
0
0
-0.000256616
-0.000266907
0.000507328
0.000541421
0
0
0
0
0
0
0.00114058
0
-4.85487e-06
-0.000604747
0.000591501
-0.000606752
0
0
0
0
0.000581076
0
0.000569874
0.00113595
-0.000577259
0
0.000590094
0.000564126
0.000567626
0.000598618
-0.000583692
-0.000561512
0.000564932
-0.00111039
0
0
-0.000524582
0.000518857
0
0.000995051
-0.000521297
0
0
0
0.000885967
0.000904536
0
0
0
0.000947893
0.000969557
-0.000923377
0
0
0.000992497
0
0.000550107
0
0.000249311
-0.000137748
5.78556e-05
0
1.16057e-05
0
0
0
2.65631e-05
-4.46704e-05
0
-0.000115771
6.26536e-05
0
5.02877e-05
0
2.75002e-05
2.72947e-05
5.84866e-05
-7.44324e-05
-4.67152e-05
-0.000158626
5.85978e-05
-0.000128482
0.000204095
-6.84412e-05
0
-0.000120012
0.000103992
9.32112e-05
0
0
-7.72099e-05
7.39454e-05
-0.000139896
-0.000138526
0
0
0
3.36654e-06
-3.43399e-06
7.04854e-05
7.3995e-05
-0.00014076
0
0
0
-6.20827e-05
3.74135e-06
0
0
0
0
3.77229e-06
0
-0.000125634
0
0
0
0
0
6.07942e-05
0.000121921
-6.09877e-05
0
-0.000117855
0.000111245
0
-0.000108861
0.000113077
0.000158563
0
0
0
0.000116366
0.000109574
0.000220954
0
-0.000102039
-6.114e-06
-0.000107702
-0.000105836
0
0.000277792
0.000261754
0
0.0001241
0
0
0.000128137
-5.14818e-06
-0.000127822
0
0
-0.000256553
0
-4.87642e-06
0
0.000145121
0
-0.000159501
0
0
-0.000160322
0
0
0
0.000192784
0.000172464
0
0.000380645
0.000189348
-0.000374192
-0.000197395
-0.000200162
0.000428772
-6.91001e-06
0.000457314
0.00046918
0.000928123
-0.000485541
0
-0.000504979
-0.000505088
-0.000496055
-5.75758e-06
0
0
0
0
0
0
-0.0010916
0
-0.00113822
0
-0.0011451
0
0.000582184
0
-0.000581545
0
-0.0011601
0
-0.000557456
-6.40075e-06
0.001112
0
0
0
0
-0.000576044
0
0
0
0.00163439
0.00102547
0
0.000494461
-0.000498103
-0.000969713
-0.000960575
-0.000977088
-0.000891478
0.000904626
0
-1.09368e-05
-0.00173073
0
0
0
-1.06266e-05
-1.03664e-05
0.000905885
0
0.00138507
-0.00110118
0
-0.000613505
0
-0.000249762
0
-4.48149e-05
0
-4.13051e-05
0
0
0
5.05407e-05
5.01604e-05
0
4.78397e-05
-4.49536e-05
0
0
0
0
-2.78441e-05
-3.48628e-05
4.13172e-05
0
0.000100323
-0.000120239
0.000260124
-0.000131808
0
0
0.000107773
0
-8.94047e-05
8.33819e-05
0
0.000141986
0
6.85574e-05
7.06388e-05
-6.94366e-05
0
0
7.53045e-05
-3.71883e-06
-6.81918e-05
6.33393e-05
3.90547e-06
0
0
5.87962e-05
6.19718e-05
6.11683e-05
5.64119e-05
0
0
0
6.1528e-05
0
4.13255e-06
5.84705e-05
-5.8007e-05
0
0.000112229
-0.000111519
-0.000173789
-0.000164908
0
0
0.000115227
-0.000113431
0
0.000112842
-0.000109521
-0.00010807
0
0
-0.000114289
0
-9.86082e-05
-9.41253e-05
-9.71182e-05
0.000109338
-0.000106925
0.0001043
0.00019405
0
-0.000124788
-0.00011756
0
0
0
0.000104082
0
-0.000129814
0.000122571
0
0
0.000123192
0
-0.000262968
0
0
0
-0.000152418
0
0
0.000450808
0
0
0
-0.000525261
-0.000172576
0
-0.000386953
-0.00037122
0.000752581
-0.000381117
0.000396513
-7.65721e-06
-0.00046144
0
-0.000474587
-0.000460958
0.00050231
0
6.73171e-06
0.000973984
0
-0.000505918
0
0
0
0
0
0
0.000522822
0
0.000557017
-0.000562239
0.000551354
0
-0.000566097
0
6.66116e-06
0
6.84589e-06
0
0
-0.00053658
-0.000542035
0
0.00104096
0
0
0
0
0.0010114
0
-0.00100975
-1.29827e-05
-0.00100628
0
0
0.000945571
0.000916544
0.000964724
1.16674e-05
-0.000906292
0
-0.000852835
0.00168844
0
0
0.000903143
-0.00183703
-1.09684e-05
0
0
-0.0013912
0.00121096
-0.00097041
0
0
6.52612e-06
0
0
0
-5.21729e-06
0
0
0
-4.93974e-05
-0.000100335
0
0
0
-0.000112334
-0.00011454
0.000107844
9.82981e-05
0
0
0
0
0
-1.13565e-07
-0.000123377
0
0
0
0
0
0
-7.20812e-05
0
-7.70181e-05
0
0
0
7.94538e-05
0
0
0
-3.95636e-06
0
-0.000127828
6.45783e-05
0
0
-5.90924e-05
5.35413e-05
0
-5.70541e-05
-5.27121e-05
0
0
0
0
5.80737e-05
-5.81295e-05
5.74656e-05
-0.000105277
-0.000207147
0.000107364
0.000113052
0.000110509
0
0
0
0
-0.000104213
0
0
0
9.56414e-05
0
7.80118e-06
0
9.59418e-05
0
0.000103046
0
0
0
-0.000106205
0
0
-9.31367e-05
-9.77954e-05
-0.000112127
0
-6.26631e-06
0
0.000112044
0
0
-0.000109454
0
0
0.000109254
0.000116166
0
0
0.000145074
-0.00028527
0
-0.000305871
0
0
-0.000309756
0.000326055
0.000324507
0
0
0.000341587
-0.00035686
0.000366294
-0.000354815
-0.000388215
-0.000425589
-0.00041782
0
0.00045097
0.000480347
0
0.000481599
-7.15586e-06
0.0004851
0
0
0
0
0
0
-0.000506387
0
-0.000514426
0
0.000555369
0
0
-0.000531467
0
0.0011083
0
0.000534958
0
0
0
0
0
-0.00199417
0.00100889
0.00102997
0
-0.000967887
-0.0010022
0
0
-1.40989e-05
0.000947653
0
0.000875981
0
-0.000898998
0
0.0017371
0
0.000839032
0
-0.000826398
0
0
-0.000873099
0.000900366
-1.16943e-05
-0.000857712
0
0
0
0.00109786
0
0
0.000247786
0
1.74559e-05
0
-4.25123e-05
0
0
0
0
9.308e-05
-0.000101824
0
0
0.000108776
0.000112384
3.70197e-06
-0.000106437
0
0
0
0
0
0.000207298
0
0
0
0
-6.88219e-05
-6.54399e-05
0
0
-6.00703e-05
0
0
6.20573e-05
0
0
0
0
0
-4.11493e-06
5.52848e-05
5.71178e-05
0
4.93921e-05
0
0
-5.23469e-05
9.39246e-05
0
5.27915e-05
0
0
0
0
0
0
-9.49415e-05
0.000105682
0.000100449
8.35627e-05
-8.21706e-05
0
0
0
0
9.1537e-05
0.000103085
-9.11229e-05
9.82397e-05
0
-0.000201104
0
9.68492e-05
8.75235e-05
-0.000196014
0
0
-7.33349e-05
7.73076e-05
-7.68151e-05
9.21983e-05
0
0
7.13709e-06
8.99093e-05
6.92654e-06
0
-6.72831e-06
-9.14203e-05
-6.54704e-06
0
0
0.000109819
0
0
0.000203935
0.000103536
0
0
0
0.000277738
0
0
0
0
0.000602434
-0.000299398
-9.50928e-06
0.000325361
0
-0.00031738
0
0.000340677
0.000355378
0
0.000411027
0.000825588
0
-0.000437577
-0.000905039
0
0
-0.000946356
-7.61073e-06
0
0
0
-0.000513493
0
0
0.00100688
0.00050679
0.000527214
0
0
-0.00051569
0
-0.000488977
0
-0.000513773
0
-0.00100854
-0.00104824
0.000968527
0
0
0
0.000983426
-1.58731e-05
-0.00101506
0
0.000921335
0
0
0
-0.000902919
0
-0.000885806
-0.000832084
0
0.000826607
-0.000884762
-1.40049e-05
-0.000803948
-1.39459e-05
0
0.00078141
0
0
0
-0.000827945
-1.25036e-05
0.00166358
0
-0.0017145
-0.00142985
0
0
0
0
0
1.0001e-05
0
-1.36595e-05
0.00018117
0
0
0
0
0.000262329
0
0
0
0
-0.000203009
0
0
0
-9.61157e-05
0
0
-7.95838e-05
0
-7.22851e-05
0
0
5.59629e-05
0.000104125
0
0
4.85111e-05
0
-4.83071e-05
-5.08472e-05
4.77743e-05
0
0
0
0
-5.01792e-05
-4.90453e-05
0
0
-4.63092e-05
0
0
0
-9.35271e-05
0
0
-8.57395e-05
0
-8.69026e-05
0
0
0
9.70457e-05
9.06181e-05
-8.82814e-05
-9.98579e-06
8.91568e-05
0
0
0
0
-8.1293e-05
-7.32799e-05
8.6655e-05
-9.38131e-05
-8.65183e-05
9.73943e-05
0
0
-8.72808e-06
8.64316e-06
-8.26175e-05
8.71822e-05
8.26543e-06
-8.58692e-05
0.000160496
-8.98664e-05
0
-8.20509e-05
8.28469e-05
0
9.16539e-05
0
8.63349e-05
-8.69527e-05
-9.80288e-05
0.000180993
0
0
-0.000207507
0
-0.000221191
-0.000214203
0
-0.000239968
0
0
0.000249288
0
0
0
-1.05773e-05
0.000309239
-0.000315522
-0.000325421
0
0.000649424
-0.000317188
-0.00033382
0.000345559
0
-0.000392183
-0.000410393
-0.000393292
0
0.000430034
0
0
0.000923648
-0.000451778
0
0
0
0.000500413
0
0
-0.000500164
-0.000505338
-0.00102274
0.00102348
-0.00098495
0.000509232
0
0.000974843
0
0
0
0.000995439
0.00204382
-0.000992217
-0.000992926
0.000977548
0.000969008
-0.000937413
-1.70669e-05
0
0
0.000896014
0
-0.000847716
0
0
0.000860385
0.00175963
0
0
-0.00157763
0.000850077
-0.000746785
0.000791203
-0.000763456
-0.000762382
-0.00151517
0
0
0
0.000766195
-0.000781949
-0.000805852
0
0.00163141
0.00127729
0
0
0
0
0
0
0
8.12176e-05
-0.000107227
0
0
0.000161998
0
-0.00026465
0.000116111
0
0
0
7.07566e-05
6.95491e-05
0
0
4.99813e-05
-4.26047e-05
0
0
3.58203e-05
3.55246e-05
0
0
0
-2.69794e-05
0
0
2.77362e-05
2.87231e-05
3.54045e-05
0
-3.28117e-05
0
0
0
5.70531e-05
0
6.06308e-05
0
0
6.45113e-05
0
6.83558e-05
-6.685e-05
0
-6.51759e-05
-6.64446e-05
7.69229e-05
0
0.000147977
0
0
-7.29619e-05
0
-1.04367e-05
8.44496e-05
-1.03907e-05
0
0
0
0
-7.04713e-05
0
7.58991e-05
0
0
7.72906e-05
6.70712e-05
0
0
-7.81752e-05
0.000149065
8.91652e-06
-9.05723e-05
8.28545e-05
-7.55393e-05
-8.43318e-05
-7.24396e-05
0
0.000219861
0.000156377
0
0
0
-0.000364517
0.000176101
-0.000159815
-0.000169479
0
0
0.00018392
0
0
0.000199639
0
0.000233373
0.000223103
0
-0.000234588
0
0
0
-0.000587082
-0.000292434
0
0
0
-1.05611e-05
0.000649319
-0.000323538
-0.000353585
-0.000348696
0.000756389
0.000379603
0.000390057
0
0
0
0
-0.000866813
-0.000440998
-0.000463416
0
0
0
0
0
0
0
0.000979614
-0.000974835
0.000958413
0
0
0
0.000942836
0
0
0
-0.000979531
0
0.00194946
-0.000960449
-0.000951767
0.000911399
-1.81433e-05
0
0
-0.00181868
0
0.00165907
0.000829813
0
-0.000815171
-0.000854341
0
0
0.00156498
-0.00078338
-0.000732656
0
0
0.000745253
0.000734446
-0.000723483
0
0
0
0
0
0
0
-0.00187553
0
0
-0.000315811
0.000166573
0
7.308e-05
0
0
0
0
0
-6.78979e-05
0
2.74996e-05
8.0224e-06
0
1.4515e-05
0
1.34533e-06
6.02994e-06
0
0
0
-1.182e-05
1.19843e-05
0
1.75596e-05
0
0
1.84101e-05
0
0
0
-1.36729e-05
1.06136e-05
9.5118e-06
0
0
0
0
-1.42048e-05
-1.47018e-05
2.01415e-05
0
-5.41573e-06
0
0
-1.27952e-05
0
-1.64906e-05
2.45134e-05
0
2.75703e-05
2.70102e-05
0
0
-2.54801e-05
0
0
2.87615e-05
-1.96042e-05
-3.75985e-05
-3.13048e-05
-7.8071e-05
-3.55288e-05
0
0
0
4.23917e-05
-2.43969e-05
0
0
0
0
-9.63149e-06
0
0
0
-6.12668e-05
9.14243e-06
0
7.44207e-05
6.1459e-05
0
0.000117225
0
-7.8834e-05
-0.000114821
0.000134163
0
0
9.83019e-05
0
0.000111444
0
7.18968e-05
-7.56807e-05
0
0
-0.000138742
-1.4419e-05
0
-0.000139988
-0.000181788
0.000168103
0
-0.000200763
0
-0.000203561
0.000206846
0.000253293
0
0
0
-0.000238652
-0.000581841
0.000578704
0
0.000274828
-0.000650796
-1.05303e-05
0.00031367
-0.000316695
0.000321477
0
0
0.000356433
0.000382905
0.00041346
0
0
0
0
0
0
0.000826857
-0.000837251
-0.000846737
0.000847305
0
0
0
-0.00085547
-0.000851639
0
0.000839153
0
0
-0.00175281
0
0
-0.000812315
-0.00166793
0
0
1.86931e-05
-0.000825137
-1.85012e-05
-1.83771e-05
-0.000712548
-0.000735756
0.000753035
0
0
-0.000750393
0.000746067
0.00142799
-0.000699089
0
0
-0.00133263
0.00206106
-0.001309
-0.00143688
0
0.00143124
0
0
0
0.00290262
0.000968681
0
0.000587873
-2.13175e-05
-3.35534e-05
-1.93565e-05
-9.85792e-05
0
0
0.000117565
0
9.82101e-05
0
0
-5.44504e-05
0
3.90103e-06
0
2.03287e-05
0
0
0
0
0
-6.82719e-05
0
0
2.59278e-05
0
-4.99887e-05
0
0
0
-2.42261e-05
0
0
-3.20271e-05
0
0
2.12623e-05
-8.52822e-06
-8.84769e-06
-1.81547e-05
-1.10322e-05
0
0
0
0
0
0
-2.61848e-05
-2.55337e-06
-4.10559e-05
0
0
0
0
-2.31554e-05
0
-2.88142e-05
4.52269e-05
0
1.07391e-05
8.69923e-05
0.000121752
0
4.60661e-05
0
0
2.99272e-05
-4.4467e-05
0
0
0
-9.44549e-06
0
0
-1.63896e-05
4.35883e-05
0.000203506
0
-0.000244221
0.000180078
0
-8.37028e-05
0
0
0
-1.60358e-05
0
0
-0.000111918
0
0
0
-5.85042e-05
0.000164305
-8.47455e-05
-0.000179283
0.000260651
-0.000240474
0
1.35711e-05
0.00023723
-0.00023379
0.00030077
0.000297631
0.000294013
1.16256e-05
0
0
0.000252956
0
-0.000267548
0.000250074
0.000394889
-1.07408e-05
0
0
0.000437389
-1.02557e-05
-0.000384273
0.000394196
-0.000357803
0
0
0
0
0
0
0
0
0
0
-0.000851313
-0.000877737
0.00193623
0.00184054
-0.00093124
-0.000884714
0
0
0
0.00186615
0
-0.000860713
0
0
0.000912168
0.000897089
0
0.00172102
0.00172925
0
0
0.000843675
0.000844666
-0.000797796
-1.87536e-05
1.85525e-05
1.82914e-05
-1.81833e-05
0
0
0
0
-0.000722535
0.00070385
0
0
0.00130946
-0.00136186
3.30285e-05
0.00137695
0
-0.00143877
-0.00149528
0
0
-0.00116263
-0.000803547
0
-0.000689884
-0.000421339
2.1034e-05
4.37436e-05
0.000162853
-8.05971e-05
-0.000124256
1.3771e-05
0
-7.3292e-05
4.75654e-05
2.96839e-05
6.76801e-06
0
0
0
0
0
0
0
0
-3.4077e-05
3.57886e-05
0
-3.54048e-05
-3.48113e-05
0
6.36205e-05
0
0
0
4.95113e-05
0
0
1.74208e-05
-1.54326e-05
0
-1.14341e-05
4.65863e-05
1.3229e-05
-1.96629e-05
-9.69959e-06
-2.65854e-05
2.18417e-05
-2.96179e-05
0
0
0
2.87184e-05
1.07886e-05
4.90452e-05
0
0
3.61873e-05
-5.36568e-06
1.07418e-05
0
5.75623e-05
3.25036e-05
0
9.37591e-05
-0.000141817
-6.46753e-05
-4.17874e-05
-6.8587e-05
0
7.89268e-05
0
8.27865e-05
0
-0.000134561
-7.85389e-05
-9.19044e-06
0
-9.88e-05
8.60587e-05
0
-1.65785e-05
0.00010728
0.000128136
-0.000245419
0
-0.000132701
0
0
-0.000185112
-0.000355924
0
0.000401554
0.0004189
0
0
0
-0.00019911
-0.000178805
0.000126702
0.000384987
0.000239809
0.000221822
-0.000309777
0.000350217
-0.000395499
0
-0.000443063
0
-0.000194929
0.000131598
0
0
-0.000235625
0
0.00076139
-1.07392e-05
0
-0.00053951
0
0
0.000477375
-0.000463829
-0.000422446
0.000890591
0.00081464
0
0
0
-0.000951632
0
0
0
0
0
0
0.00201637
0
-0.00215815
-0.000968883
0
0.00105029
0.000949237
0
0.000926406
-0.000991942
0
0
0
0
0.000926906
-0.00186271
0
-0.000900095
-0.000892471
0
0
0
0
0.000794267
-0.00157109
0.000776781
0.00152398
-0.00073283
-0.000715535
0
0
0
0
0
0
0
0
0
0.00233664
0
0
-0.00132239
0.00145854
0
0
-0.00079336
0
0
0.000325679
0.000203397
0.000157722
-3.01478e-05
-9.6549e-05
7.8353e-05
0.000127986
-2.66169e-05
0
0
-8.86134e-05
-2.54161e-05
0
0
0
0
0
0
0
0
3.91596e-05
3.97741e-05
-3.79487e-05
0
3.91587e-05
0
-3.99135e-05
-2.73409e-05
0
-2.36404e-05
0
0
0
0
0
3.04545e-05
-4.23085e-05
0
-3.82761e-05
0
2.17029e-05
1.37282e-05
2.1332e-05
-4.99833e-05
-1.12202e-05
0
0
-2.47264e-05
0
4.38292e-05
4.8478e-05
0
0
-0.000142563
-2.73433e-05
4.29253e-05
0
-7.96007e-05
-7.0005e-05
0
0
0.000122316
-4.34724e-05
9.84166e-06
0
0
-9.32237e-06
0
0.000122622
-0.000136551
0.000158753
8.52429e-06
-0.000215917
0
0.00014283
0
0
-0.000180623
-0.000106473
0
-0.000325917
-5.96629e-06
0.000113589
0
0
0.000395555
0
0
-0.000418008
-0.000102359
0
-0.000263824
-0.000457816
0.000638969
0
-0.000247386
-0.000338889
-1.18879e-05
-1.15766e-05
0.000322045
0
0
0
-0.000386601
-0.000228866
0
0.00010777
-0.000326084
0
0
0
-0.000248616
-0.000357169
0
0
-0.000561699
0
-0.000429713
0
0.000440866
-0.000945653
-0.000937255
0
-0.000750114
0
1.65806e-05
0
0
-0.00122935
0.00116188
-0.00112002
0
-0.00220853
0
0.00100051
0.000886324
-0.00108497
-0.00106682
-0.00100274
0
-0.000965672
-0.000935332
-0.000858312
0
0
0
-0.000950121
0.000908231
0.000857067
0.000886832
-0.000871427
0
0
0
0
-0.000797227
1.82243e-05
-0.000741834
-0.000741758
0
1.7503e-05
-0.000672993
0.000685582
0.000639851
0
0
0
0
-0.00121044
0
-0.00120456
0
0
0.00123981
0
0
0
0.000665546
0
0
-0.000113667
0
3.03579e-05
9.04608e-05
0.000178955
0
-0.000140237
-0.00012306
0
0.000115892
8.6962e-05
0
0
0
0
0
0
0
2.71668e-05
0
-7.79093e-05
0
3.09266e-05
-3.57903e-05
3.30021e-05
-4.00854e-05
3.76231e-05
0
0
2.83905e-05
3.27819e-05
2.98947e-05
0
0
0
-3.63544e-05
5.95857e-05
-3.73933e-05
0
0
9.50071e-06
0
0
8.56453e-05
-4.47859e-07
-2.40817e-05
0
-6.81103e-06
0
-2.57845e-05
-3.7534e-05
0
0
6.68422e-05
0
0
0
0
1.88543e-05
-6.22237e-05
0.00012803
0
9.12492e-06
0
5.69396e-05
-0.000176927
-9.09406e-05
0
-7.56374e-05
0.000169116
0
7.93577e-06
7.90085e-06
0
0
0.000131114
0
-0.000135364
0
0
0.000409612
-1.32344e-05
0.000144614
0
0
-0.000228068
0
0
0
0
0
0.000594135
0.00050754
-0.000361236
0
0.000224777
0.000482052
-0.000734525
-0.000364924
0
0.000287365
0
0
0.000383404
0.000390873
0
-0.000470633
0.000348532
0
-0.000326499
0
0
0
0
0.000532194
8.30219e-06
0.000469331
0
0
0.000407031
0
0.000489712
0
0.000851413
0
1.5042e-05
0
0
0.00122446
-1.50916e-05
0.00130369
0
0.00239663
0
-0.000979043
-0.000905842
0.000993986
1.76938e-05
0
0
0.00100559
0.000943246
0.000941497
0.00082291
0
-0.0009217
-0.000895011
0.000792966
-0.000864229
-0.000887077
0.000863281
0
0
0
0.000787283
-0.000755889
0.000732238
0.000719424
0
0
0.00067083
1.66598e-05
-0.00132502
-0.000609546
0
0
0.000583475
0
0.00120077
0.00057501
0
-0.00107123
0
0.0011762
0.00127078
0.0013816
0
0
0.000572448
0
0.000125461
4.41818e-05
0
0
2.05687e-05
0
0
0.000163038
0
-0.000154951
-0.000139016
0.000111157
0
0
3.75664e-05
0
0
0
-9.86636e-07
0
5.30991e-05
0
0
2.67554e-05
-3.20852e-05
4.40336e-05
0
0
0
0
-4.5206e-05
-4.27566e-05
0
-4.65701e-05
0
3.29998e-05
-3.36378e-05